 DBCSR| Multiplication driver                                               BLAS
 DBCSR| Multrec recursion limit                                              512
 DBCSR| Multiplication stack size                                           1000
 DBCSR| Maximum elements for images                                    UNLIMITED
 DBCSR| Multiplicative factor virtual images                                   1
 DBCSR| Multiplication size stacks                                             3
 DBCSR| Number of 3D layers                                               SINGLE
 DBCSR| Use MPI memory allocation                                              T
 DBCSR| Use RMA algorithm                                                      F
 DBCSR| Use Communication thread                                               T
 DBCSR| Communication thread load                                             87


  **** **** ******  **  PROGRAM STARTED AT               2020-08-07 15:53:00.317
 ***** ** ***  *** **   PROGRAM STARTED ON                                  f343
 **    ****   ******    PROGRAM STARTED BY                                ongari
 ***** **    ** ** **   PROGRAM PROCESS ID                                 24823
  **** **  *******  **  PROGRAM STARTED IN /scratch/ongari/lsmo_benchmark/cp2k/0
                                           7_fidis_cp2k-5.1_intel-mpi/ncores_192

 CP2K| version string:                                          CP2K version 5.1
 CP2K| source code revision number:                                    svn:18091
 CP2K| cp2kflags: libint fftw3 pexsi parallel mpi3 scalapack libderiv_max_am1=5 
 CP2K|            libint_max_am=6
 CP2K| is freely available from                            https://www.cp2k.org/
 CP2K| Program compiled at                          Thu Jul 5 11:15:01 CEST 2018
 CP2K| Program compiled on                                                  f016
 CP2K| Program compiled for                  linux-rhel7-x86_E5v4_Mellanox-intel
 CP2K| Data directory path    /ssoft/spack/paien/v3/opt/spack/linux-rhel7-x86_E5
 CP2K| Input file name                                                H2O-64.inp
 
 GLOBAL| Force Environment number                                              1
 GLOBAL| Basis set file name                                      GTH_BASIS_SETS
 GLOBAL| Potential file name                                           POTENTIAL
 GLOBAL| MM Potential file name                                     MM_POTENTIAL
 GLOBAL| Coordinate file name                                      __STD_INPUT__
 GLOBAL| Method name                                                        CP2K
 GLOBAL| Project name                                                     H2O-64
 GLOBAL| Preferred FFT library                                             FFTW3
 GLOBAL| Preferred diagonalization lib.                                       SL
 GLOBAL| Run type                                                             MD
 GLOBAL| All-to-all communication in single precision                          F
 GLOBAL| FFTs using library dependent lengths                                  F
 GLOBAL| Global print level                                                  LOW
 GLOBAL| Total number of message passing processes                           192
 GLOBAL| Number of threads for this process                                    1
 GLOBAL| This output is from process                                           0
 GLOBAL| CPU model name :  Intel(R) Xeon(R) CPU E5-2690 v4 @ 2.60GHz

 MEMORY| system memory details [Kb]
 MEMORY|                        rank 0           min           max       average
 MEMORY| MemTotal            131625560     131625560     131625560     131625560
 MEMORY| MemFree             114909516     114458400     115113808     114802347
 MEMORY| Buffers                 25560         23744         25560         24698
 MEMORY| Cached                 206936        200528        289800        233074
 MEMORY| Slab                  1346092       1336204       1363340       1347686
 MEMORY| SReclaimable            60772         59040         65324         61533
 MEMORY| MemLikelyFree       115202784     114807444     115399164     115121655

 
 GENERATE|  Preliminary Number of Bonds generated:                             0
 GENERATE|  Achieved consistency in connectivity generation.

 *******************************************************************************
 *******************************************************************************
 **                                                                           **
 **     #####                         ##              ##                      **
 **    ##   ##            ##          ##              ##                      **
 **   ##     ##                       ##            ######                    **
 **   ##     ##  ##   ##  ##   #####  ##  ##   ####   ##    #####    #####    **
 **   ##     ##  ##   ##  ##  ##      ## ##   ##      ##   ##   ##  ##   ##   **
 **   ##  ## ##  ##   ##  ##  ##      ####     ###    ##   ######   ######    **
 **    ##  ###   ##   ##  ##  ##      ## ##      ##   ##   ##       ##        **
 **     #######   #####   ##   #####  ##  ##  ####    ##    #####   ##        **
 **           ##                                                    ##        **
 **                                                                           **
 **                                                ... make the atoms dance   **
 **                                                                           **
 **            Copyright (C) by CP2K developers group (2000 - 2017)           **
 **                                                                           **
 *******************************************************************************


 SCF PARAMETERS         Density guess:                                    ATOMIC
                        --------------------------------------------------------
                        max_scf:                                              50
                        max_scf_history:                                       0
                        max_diis:                                              4
                        --------------------------------------------------------
                        eps_scf:                                        1.00E-05
                        eps_scf_history:                                0.00E+00
                        eps_diis:                                       1.00E-01
                        eps_eigval:                                     1.00E-05
                        --------------------------------------------------------
                        level_shift [a.u.]:                                 0.00
                        --------------------------------------------------------
                        No outer SCF
 
 MD| Molecular Dynamics Protocol 
 MD| Ensemble Type                                                           NVE
 MD| Number of Time Steps                                                     10
 MD| Time Step [fs]                                                         0.50
 MD| Temperature [K]                                                      300.00
 MD| Temperature tolerance [K]                                              0.00
 MD| Print MD information every                                        1 step(s)
 MD| File type     Print frequency[steps]                             File names
 MD| Coordinates            1                                   H2O-64-pos-1.xyz
 MD| Velocities             1                                   H2O-64-vel-1.xyz
 MD| Energies               1                                      H2O-64-1.ener
 MD| Dump                  20                                   H2O-64-1.restart
 
 ROT| Rotational Analysis Info 
 ROT| Principal axes and moments of inertia in atomic units:
 ROT|                                1                 2                 3
 ROT| EIGENVALUES            0.174175353E+09   0.187507692E+09   0.199545123E+09
 ROT|      X                    -0.734964520       0.242599134       0.633224142
 ROT|      Y                    -0.044883650       0.914361712      -0.402402930
 ROT|      Z                    -0.676618513      -0.324173287      -0.661134682
 ROT| Numer of Rotovibrational vectors:     6

 Calculation of degrees of freedom
                                                      Number of atoms:       192
                                 Number of Intramolecular constraints:         0
                                 Number of Intermolecular constraints:         0
                                  Invariants(translation + rotations):         3
                                                   Degrees of freedom:       573


 Restraints Information
                                  Number of Intramolecular restraints:         0
                                  Number of Intermolecular restraints:         0
 ************************** Velocities initialization **************************
 Initial Temperature                                                    300.00 K
 COM velocity:           -0.000000000000     -0.000000000000     -0.000000000000
 *******************************************************************************


 Number of electrons:                                                        512
 Number of occupied orbitals:                                                256
 Number of molecular orbitals:                                               256

 Number of orbital functions:                                               2560
 Number of independent orbital functions:                                   2560

 Extrapolation method: initial_guess


 SCF WAVEFUNCTION OPTIMIZATION

  ----------------------------------- OT ---------------------------------------
  Minimizer      : DIIS                : direct inversion
                                         in the iterative subspace
                                         using   7 DIIS vectors
                                         safer DIIS on
  Preconditioner : FULL_KINETIC        : inversion of T + eS
  Precond_solver : DEFAULT
  stepsize       :    0.15000000                  energy_gap     :    0.20000000
  eps_taylor     :   0.10000E-15                  max_taylor     :             4
  ----------------------------------- OT ---------------------------------------

  Step     Update method      Time    Convergence         Total energy    Change
  ------------------------------------------------------------------------------
     1 OT DIIS     0.15E+00    0.5     0.01332027     -1059.3825079557 -1.06E+03
     2 OT DIIS     0.15E+00    0.3     0.00868183     -1073.0837973670 -1.37E+01
     3 OT DIIS     0.15E+00    0.3     0.00608177     -1082.3329449393 -9.25E+00
     4 OT DIIS     0.15E+00    0.3     0.00420419     -1088.9991944739 -6.67E+00
     5 OT DIIS     0.15E+00    0.3     0.00319228     -1092.5975694249 -3.60E+00
     6 OT DIIS     0.15E+00    0.3     0.00242089     -1095.2728736089 -2.68E+00
     7 OT DIIS     0.15E+00    0.2     0.00180823     -1097.1827110187 -1.91E+00
     8 OT DIIS     0.15E+00    0.2     0.00136563     -1098.4047633188 -1.22E+00
     9 OT DIIS     0.15E+00    0.2     0.00107154     -1099.0957253931 -6.91E-01
    10 OT DIIS     0.15E+00    0.3     0.00085958     -1099.5568478897 -4.61E-01
    11 OT DIIS     0.15E+00    0.3     0.00070902     -1099.8674344588 -3.11E-01
    12 OT DIIS     0.15E+00    0.2     0.00059349     -1100.0778291172 -2.10E-01
    13 OT DIIS     0.15E+00    0.2     0.00050949     -1100.2324062136 -1.55E-01
    14 OT DIIS     0.15E+00    0.2     0.00044833     -1100.3361495732 -1.04E-01
    15 OT DIIS     0.15E+00    0.2     0.00039690     -1100.4341573205 -9.80E-02
    16 OT DIIS     0.15E+00    0.2     0.00035862     -1100.5038829257 -6.97E-02
    17 OT DIIS     0.15E+00    0.2     0.00034534     -1100.5572959989 -5.34E-02
    18 OT DIIS     0.15E+00    0.3     0.00034139     -1100.5793052943 -2.20E-02
    19 OT DIIS     0.15E+00    0.3     0.00033463     -1100.5947747725 -1.55E-02
    20 OT SD       0.15E+00    0.2     0.00033658     -1100.6056260666 -1.09E-02
    21 OT DIIS     0.15E+00    0.2     0.00033500     -1100.6167319763 -1.11E-02
    22 OT DIIS     0.15E+00    0.2     0.00032752     -1100.6181772877 -1.45E-03
    23 OT DIIS     0.15E+00    0.2     0.00032184     -1100.6243788064 -6.20E-03
    24 OT DIIS     0.15E+00    0.2     0.00030944     -1100.6371111614 -1.27E-02
    25 OT SD       0.15E+00    0.2     0.00030022     -1100.6455945048 -8.48E-03
    26 OT DIIS     0.15E+00    0.2     0.00029911     -1100.6544335251 -8.84E-03
    27 OT DIIS     0.15E+00    0.2     0.00028894     -1100.6591662825 -4.73E-03
    28 OT SD       0.15E+00    0.2     0.00028473     -1100.6665469323 -7.38E-03
    29 OT SD       0.15E+00    0.2     0.00028442     -1100.6745080801 -7.96E-03
    30 OT SD       0.15E+00    0.2     0.00028480     -1100.6824637366 -7.96E-03
    31 OT SD       0.15E+00    0.2     0.00028544     -1100.6904451527 -7.98E-03
    32 OT DIIS     0.15E+00    0.2     0.00028617     -1100.6984643086 -8.02E-03
    33 OT SD       0.15E+00    0.2     0.00033212     -1100.7435639636 -4.51E-02
    34 OT SD       0.15E+00    0.2     0.00031463     -1100.7540641968 -1.05E-02
    35 OT SD       0.15E+00    0.2     0.00030588     -1100.7636402127 -9.58E-03
    36 OT SD       0.15E+00    0.2     0.00030057     -1100.7727489684 -9.11E-03
    37 OT SD       0.15E+00    0.2     0.00029679     -1100.7815697670 -8.82E-03
    38 OT SD       0.15E+00    0.3     0.00029367     -1100.7901809978 -8.61E-03
    39 OT DIIS     0.15E+00    0.3     0.00029082     -1100.7986166934 -8.44E-03
    40 OT SD       0.15E+00    0.2     0.00016832     -1100.9875398768 -1.89E-01
    41 OT DIIS     0.15E+00    0.2     0.00014749     -1100.9901042390 -2.56E-03
    42 OT DIIS     0.15E+00    0.3     0.00023359     -1100.9860270235  4.08E-03
    43 OT DIIS     0.15E+00    0.2     0.00017591     -1100.9988969371 -1.29E-02
    44 OT DIIS     0.15E+00    0.2     0.00022226     -1101.0010831347 -2.19E-03
    45 OT DIIS     0.15E+00    0.2     0.00015342     -1101.0160500109 -1.50E-02
    46 OT DIIS     0.15E+00    0.2     0.00005874     -1101.0255699554 -9.52E-03
    47 OT DIIS     0.15E+00    0.2     0.00007360     -1101.0255460654  2.39E-05
    48 OT DIIS     0.15E+00    0.2     0.00005773     -1101.0267774770 -1.23E-03
    49 OT DIIS     0.15E+00    0.2     0.00005383     -1101.0275719804 -7.95E-04
    50 OT DIIS     0.15E+00    0.2     0.00004287     -1101.0287889095 -1.22E-03

  Leaving inner SCF loop after reaching    50 steps.


  Electronic density on regular grids:       -512.0000015471       -0.0000015471
  Core density on regular grids:              512.0000000045        0.0000000045
  Total charge density on r-space grids:       -0.0000015426
  Total charge density g-space grids:          -0.0000015426

  Overlap energy of the core charge distribution:               0.00000562599749
  Self energy of the core charge distribution:              -2805.30499493854950
  Core Hamiltonian energy:                                    825.29378519546196
  Hartree energy:                                            1145.26167274359318
  Exchange-correlation energy:                               -266.27925753598527

  Total energy:                                             -1101.02878890948205

 *** WARNING in qs_scf.F:539 :: SCF run NOT converged ***


 ENERGY| Total FORCE_EVAL ( QS ) energy (a.u.):            -1101.031006970550379

 
 MD_ENERGIES| Initialization proceeding
 

 ******************************** GO CP2K GO! **********************************
 INITIAL POTENTIAL ENERGY[hartree]     =                     -0.110103100697E+04
 INITIAL KINETIC ENERGY[hartree]       =                      0.272187778755E+00
 INITIAL TEMPERATURE[K]                =                                 300.000
 INITIAL VOLUME[bohr^3]                =                      0.129095421321E+05
 INITIAL CELL LNTHS[bohr]   =      0.2345868E+02   0.2345868E+02   0.2345868E+02
 INITIAL CELL ANGLS[deg]    =      0.9000000E+02   0.9000000E+02   0.9000000E+02
 ******************************** GO CP2K GO! **********************************

 Number of electrons:                                                        512
 Number of occupied orbitals:                                                256
 Number of molecular orbitals:                                               256

 Number of orbital functions:                                               2560
 Number of independent orbital functions:                                   2560

 Extrapolation method: PS Nth order


 SCF WAVEFUNCTION OPTIMIZATION

  ----------------------------------- OT ---------------------------------------
  Minimizer      : DIIS                : direct inversion
                                         in the iterative subspace
                                         using   7 DIIS vectors
                                         safer DIIS on
  Preconditioner : FULL_KINETIC        : inversion of T + eS
  Precond_solver : DEFAULT
  stepsize       :    0.15000000                  energy_gap     :    0.20000000
  eps_taylor     :   0.10000E-15                  max_taylor     :             4
  ----------------------------------- OT ---------------------------------------

  Step     Update method      Time    Convergence         Total energy    Change
  ------------------------------------------------------------------------------
     1 OT DIIS     0.15E+00    0.3     0.00024949     -1101.0278031974 -1.10E+03
     2 OT DIIS     0.15E+00    0.2     0.00016075     -1101.0327091508 -4.91E-03
     3 OT DIIS     0.15E+00    0.2     0.00009050     -1101.0362863174 -3.58E-03
     4 OT DIIS     0.15E+00    0.2     0.00006199     -1101.0377277257 -1.44E-03
     5 OT DIIS     0.15E+00    0.2     0.00003797     -1101.0386877894 -9.60E-04
     6 OT DIIS     0.15E+00    0.2     0.00002205     -1101.0391017619 -4.14E-04
     7 OT DIIS     0.15E+00    0.2     0.00001260     -1101.0392355450 -1.34E-04
     8 OT DIIS     0.15E+00    0.2     0.00000723     -1101.0392767826 -4.12E-05

  *** SCF run converged in     8 steps ***


  Electronic density on regular grids:       -512.0000014905       -0.0000014905
  Core density on regular grids:              511.9999999975       -0.0000000025
  Total charge density on r-space grids:       -0.0000014931
  Total charge density g-space grids:          -0.0000014931

  Overlap energy of the core charge distribution:               0.00000554074590
  Self energy of the core charge distribution:              -2805.30499493854950
  Core Hamiltonian energy:                                    824.99709670364484
  Hartree energy:                                            1145.47089243722940
  Exchange-correlation energy:                               -266.20227652568104

  Total energy:                                             -1101.03927678261061

 ENERGY| Total FORCE_EVAL ( QS ) energy (a.u.):            -1101.039289563983857


 *******************************************************************************
 ENSEMBLE TYPE                =                                              NVE
 STEP NUMBER                  =                                                1
 TIME [fs]                    =                                         0.500000
 CONSERVED QUANTITY [hartree] =                              -0.110076554067E+04

                                              INSTANTANEOUS             AVERAGES
 CPU TIME [s]                 =                       15.86                15.86
 ENERGY DRIFT PER ATOM [K]    =         -0.110545478841E+02   0.000000000000E+00
 POTENTIAL ENERGY[hartree]    =         -0.110103928956E+04  -0.110103928956E+04
 KINETIC ENERGY [hartree]     =          0.273748891513E+00   0.273748891513E+00
 TEMPERATURE [K]              =                     301.721              301.721
 *******************************************************************************


 Number of electrons:                                                        512
 Number of occupied orbitals:                                                256
 Number of molecular orbitals:                                               256

 Number of orbital functions:                                               2560
 Number of independent orbital functions:                                   2560

 Extrapolation method: PS Nth order


 SCF WAVEFUNCTION OPTIMIZATION

  ----------------------------------- OT ---------------------------------------
  Minimizer      : DIIS                : direct inversion
                                         in the iterative subspace
                                         using   7 DIIS vectors
                                         safer DIIS on
  Preconditioner : FULL_KINETIC        : inversion of T + eS
  Precond_solver : DEFAULT
  stepsize       :    0.15000000                  energy_gap     :    0.20000000
  eps_taylor     :   0.10000E-15                  max_taylor     :             4
  ----------------------------------- OT ---------------------------------------

  Step     Update method      Time    Convergence         Total energy    Change
  ------------------------------------------------------------------------------
     1 OT DIIS     0.15E+00    0.3     0.00018187     -1101.0453213820 -1.10E+03
     2 OT DIIS     0.15E+00    0.2     0.00012503     -1101.0480054190 -2.68E-03
     3 OT DIIS     0.15E+00    0.2     0.00007517     -1101.0503828145 -2.38E-03
     4 OT DIIS     0.15E+00    0.2     0.00005150     -1101.0514777106 -1.09E-03
     5 OT DIIS     0.15E+00    0.2     0.00002882     -1101.0522243706 -7.47E-04
     6 OT DIIS     0.15E+00    0.2     0.00001712     -1101.0524515284 -2.27E-04
     7 OT DIIS     0.15E+00    0.2     0.00000972     -1101.0525297372 -7.82E-05

  *** SCF run converged in     7 steps ***


  Electronic density on regular grids:       -512.0000014194       -0.0000014194
  Core density on regular grids:              511.9999999954       -0.0000000046
  Total charge density on r-space grids:       -0.0000014240
  Total charge density g-space grids:          -0.0000014240

  Overlap energy of the core charge distribution:               0.00000508717620
  Self energy of the core charge distribution:              -2805.30499493854950
  Core Hamiltonian energy:                                    823.99099498801525
  Hartree energy:                                            1146.19319011613470
  Exchange-correlation energy:                               -265.93172499001651

  Total energy:                                             -1101.05252973723964

 ENERGY| Total FORCE_EVAL ( QS ) energy (a.u.):            -1101.052553905903551


 *******************************************************************************
 ENSEMBLE TYPE                =                                              NVE
 STEP NUMBER                  =                                                2
 TIME [fs]                    =                                         1.000000
 CONSERVED QUANTITY [hartree] =                              -0.110076574941E+04

                                              INSTANTANEOUS             AVERAGES
 CPU TIME [s]                 =                        1.86                 8.86
 ENERGY DRIFT PER ATOM [K]    =         -0.113978551315E+02  -0.569892756576E+01
 POTENTIAL ENERGY[hartree]    =         -0.110105255391E+04  -0.110104592173E+04
 KINETIC ENERGY [hartree]     =          0.286804492827E+00   0.280276692170E+00
 TEMPERATURE [K]              =                     316.110              308.915
 *******************************************************************************


 Number of electrons:                                                        512
 Number of occupied orbitals:                                                256
 Number of molecular orbitals:                                               256

 Number of orbital functions:                                               2560
 Number of independent orbital functions:                                   2560

 Extrapolation method: PS Nth order


 SCF WAVEFUNCTION OPTIMIZATION

  ----------------------------------- OT ---------------------------------------
  Minimizer      : DIIS                : direct inversion
                                         in the iterative subspace
                                         using   7 DIIS vectors
                                         safer DIIS on
  Preconditioner : FULL_KINETIC        : inversion of T + eS
  Precond_solver : DEFAULT
  stepsize       :    0.15000000                  energy_gap     :    0.20000000
  eps_taylor     :   0.10000E-15                  max_taylor     :             4
  ----------------------------------- OT ---------------------------------------

  Step     Update method      Time    Convergence         Total energy    Change
  ------------------------------------------------------------------------------
     1 OT DIIS     0.15E+00    0.3     0.00016599     -1101.0673401807 -1.10E+03
     2 OT DIIS     0.15E+00    0.2     0.00011755     -1101.0696106474 -2.27E-03
     3 OT DIIS     0.15E+00    0.2     0.00007010     -1101.0718403937 -2.23E-03
     4 OT DIIS     0.15E+00    0.2     0.00004686     -1101.0728159792 -9.76E-04
     5 OT DIIS     0.15E+00    0.2     0.00002506     -1101.0734352745 -6.19E-04
     6 OT DIIS     0.15E+00    0.2     0.00001526     -1101.0735929641 -1.58E-04
     7 OT DIIS     0.15E+00    0.2     0.00000857     -1101.0736544803 -6.15E-05

  *** SCF run converged in     7 steps ***


  Electronic density on regular grids:       -512.0000013333       -0.0000013333
  Core density on regular grids:              511.9999999979       -0.0000000021
  Total charge density on r-space grids:       -0.0000013354
  Total charge density g-space grids:          -0.0000013354

  Overlap energy of the core charge distribution:               0.00000421676059
  Self energy of the core charge distribution:              -2805.30499493854950
  Core Hamiltonian energy:                                    822.43891721574732
  Hartree energy:                                            1147.30180931058067
  Exchange-correlation energy:                               -265.50939028485902

  Total energy:                                             -1101.07365448031987

 ENERGY| Total FORCE_EVAL ( QS ) energy (a.u.):            -1101.073673404312103


 *******************************************************************************
 ENSEMBLE TYPE                =                                              NVE
 STEP NUMBER                  =                                                3
 TIME [fs]                    =                                         1.500000
 CONSERVED QUANTITY [hartree] =                              -0.110076623801E+04

                                              INSTANTANEOUS             AVERAGES
 CPU TIME [s]                 =                        1.95                 6.55
 ENERGY DRIFT PER ATOM [K]    =         -0.122014237359E+02  -0.786642628914E+01
 POTENTIAL ENERGY[hartree]    =         -0.110107367340E+04  -0.110105517229E+04
 KINETIC ENERGY [hartree]     =          0.307435398585E+00   0.289329594308E+00
 TEMPERATURE [K]              =                     338.849              318.893
 *******************************************************************************


 Number of electrons:                                                        512
 Number of occupied orbitals:                                                256
 Number of molecular orbitals:                                               256

 Number of orbital functions:                                               2560
 Number of independent orbital functions:                                   2560

 Extrapolation method: PS Nth order


 SCF WAVEFUNCTION OPTIMIZATION

  ----------------------------------- OT ---------------------------------------
  Minimizer      : DIIS                : direct inversion
                                         in the iterative subspace
                                         using   7 DIIS vectors
                                         safer DIIS on
  Preconditioner : FULL_KINETIC        : inversion of T + eS
  Precond_solver : DEFAULT
  stepsize       :    0.15000000                  energy_gap     :    0.20000000
  eps_taylor     :   0.10000E-15                  max_taylor     :             4
  ----------------------------------- OT ---------------------------------------

  Step     Update method      Time    Convergence         Total energy    Change
  ------------------------------------------------------------------------------
     1 OT DIIS     0.15E+00    0.3     0.00016900     -1101.0882815791 -1.10E+03
     2 OT DIIS     0.15E+00    0.2     0.00012004     -1101.0906392119 -2.36E-03
     3 OT DIIS     0.15E+00    0.2     0.00006991     -1101.0929761670 -2.34E-03
     4 OT DIIS     0.15E+00    0.2     0.00004370     -1101.0939498196 -9.74E-04
     5 OT DIIS     0.15E+00    0.2     0.00002172     -1101.0944515377 -5.02E-04
     6 OT DIIS     0.15E+00    0.2     0.00001364     -1101.0945537971 -1.02E-04
     7 OT DIIS     0.15E+00    0.3     0.00000750     -1101.0946004838 -4.67E-05

  *** SCF run converged in     7 steps ***


  Electronic density on regular grids:       -512.0000012177       -0.0000012177
  Core density on regular grids:              512.0000000002        0.0000000002
  Total charge density on r-space grids:       -0.0000012176
  Total charge density g-space grids:          -0.0000012176

  Overlap energy of the core charge distribution:               0.00000308048338
  Self energy of the core charge distribution:              -2805.30499493854950
  Core Hamiltonian energy:                                    820.48664268915422
  Hartree energy:                                            1148.70443612235385
  Exchange-correlation energy:                               -264.98068743720268

  Total energy:                                             -1101.09460048376059

 ENERGY| Total FORCE_EVAL ( QS ) energy (a.u.):            -1101.094614859846388


 *******************************************************************************
 ENSEMBLE TYPE                =                                              NVE
 STEP NUMBER                  =                                                4
 TIME [fs]                    =                                         2.000000
 CONSERVED QUANTITY [hartree] =                              -0.110076681835E+04

                                              INSTANTANEOUS             AVERAGES
 CPU TIME [s]                 =                        1.97                 5.41
 ENERGY DRIFT PER ATOM [K]    =         -0.131558944349E+02  -0.918879332558E+01
 POTENTIAL ENERGY[hartree]    =         -0.110109461486E+04  -0.110106503293E+04
 KINETIC ENERGY [hartree]     =          0.327796508688E+00   0.298946322903E+00
 TEMPERATURE [K]              =                     361.291              329.493
 *******************************************************************************


 Number of electrons:                                                        512
 Number of occupied orbitals:                                                256
 Number of molecular orbitals:                                               256

 Number of orbital functions:                                               2560
 Number of independent orbital functions:                                   2560

 Extrapolation method: PS Nth order


 SCF WAVEFUNCTION OPTIMIZATION

  ----------------------------------- OT ---------------------------------------
  Minimizer      : DIIS                : direct inversion
                                         in the iterative subspace
                                         using   7 DIIS vectors
                                         safer DIIS on
  Preconditioner : FULL_KINETIC        : inversion of T + eS
  Precond_solver : DEFAULT
  stepsize       :    0.15000000                  energy_gap     :    0.20000000
  eps_taylor     :   0.10000E-15                  max_taylor     :             4
  ----------------------------------- OT ---------------------------------------

  Step     Update method      Time    Convergence         Total energy    Change
  ------------------------------------------------------------------------------
     1 OT DIIS     0.15E+00    0.3     0.00006426     -1101.1044110236 -1.10E+03
     2 OT DIIS     0.15E+00    0.2     0.00005315     -1101.1047787984 -3.68E-04
     3 OT DIIS     0.15E+00    0.2     0.00003232     -1101.1054483798 -6.70E-04
     4 OT DIIS     0.15E+00    0.2     0.00002194     -1101.1057147872 -2.66E-04
     5 OT DIIS     0.15E+00    0.2     0.00001212     -1101.1058730945 -1.58E-04
     6 OT DIIS     0.15E+00    0.2     0.00000783     -1101.1059135973 -4.05E-05

  *** SCF run converged in     6 steps ***


  Electronic density on regular grids:       -512.0000010688       -0.0000010688
  Core density on regular grids:              511.9999999989       -0.0000000011
  Total charge density on r-space grids:       -0.0000010699
  Total charge density g-space grids:          -0.0000010699

  Overlap energy of the core charge distribution:               0.00000200945111
  Self energy of the core charge distribution:              -2805.30499493854950
  Core Hamiltonian energy:                                    818.39013739170025
  Hartree energy:                                            1150.21806252094188
  Exchange-correlation energy:                               -264.40912058080772

  Total energy:                                             -1101.10591359726391

 ENERGY| Total FORCE_EVAL ( QS ) energy (a.u.):            -1101.105932128856239


 *******************************************************************************
 ENSEMBLE TYPE                =                                              NVE
 STEP NUMBER                  =                                                5
 TIME [fs]                    =                                         2.500000
 CONSERVED QUANTITY [hartree] =                              -0.110076715532E+04

                                              INSTANTANEOUS             AVERAGES
 CPU TIME [s]                 =                        1.66                 4.66
 ENERGY DRIFT PER ATOM [K]    =         -0.137100853596E+02  -0.100930517324E+02
 POTENTIAL ENERGY[hartree]    =         -0.110110593213E+04  -0.110107321277E+04
 KINETIC ENERGY [hartree]     =          0.338776813796E+00   0.306912421082E+00
 TEMPERATURE [K]              =                     373.393              338.273
 *******************************************************************************


 Number of electrons:                                                        512
 Number of occupied orbitals:                                                256
 Number of molecular orbitals:                                               256

 Number of orbital functions:                                               2560
 Number of independent orbital functions:                                   2560

 Extrapolation method: PS Nth order


 SCF WAVEFUNCTION OPTIMIZATION

  ----------------------------------- OT ---------------------------------------
  Minimizer      : DIIS                : direct inversion
                                         in the iterative subspace
                                         using   7 DIIS vectors
                                         safer DIIS on
  Preconditioner : FULL_KINETIC        : inversion of T + eS
  Precond_solver : DEFAULT
  stepsize       :    0.15000000                  energy_gap     :    0.20000000
  eps_taylor     :   0.10000E-15                  max_taylor     :             4
  ----------------------------------- OT ---------------------------------------

  Step     Update method      Time    Convergence         Total energy    Change
  ------------------------------------------------------------------------------
     1 OT DIIS     0.15E+00    0.3     0.00004706     -1101.1011339815 -1.10E+03
     2 OT DIIS     0.15E+00    0.2     0.00003814     -1101.1013293809 -1.95E-04
     3 OT DIIS     0.15E+00    0.2     0.00002079     -1101.1016568934 -3.28E-04
     4 OT DIIS     0.15E+00    0.2     0.00001223     -1101.1017643462 -1.07E-04
     5 OT DIIS     0.15E+00    0.2     0.00000730     -1101.1018023382 -3.80E-05

  *** SCF run converged in     5 steps ***


  Electronic density on regular grids:       -512.0000009008       -0.0000009008
  Core density on regular grids:              511.9999999941       -0.0000000059
  Total charge density on r-space grids:       -0.0000009067
  Total charge density g-space grids:          -0.0000009067

  Overlap energy of the core charge distribution:               0.00000123724779
  Self energy of the core charge distribution:              -2805.30499493854950
  Core Hamiltonian energy:                                    816.35636953441713
  Hartree energy:                                            1151.70037309181635
  Exchange-correlation energy:                               -263.85355126309804

  Total energy:                                             -1101.10180233816618

 ENERGY| Total FORCE_EVAL ( QS ) energy (a.u.):            -1101.101815178019251


 *******************************************************************************
 ENSEMBLE TYPE                =                                              NVE
 STEP NUMBER                  =                                                6
 TIME [fs]                    =                                         3.000000
 CONSERVED QUANTITY [hartree] =                              -0.110076702437E+04

                                              INSTANTANEOUS             AVERAGES
 CPU TIME [s]                 =                        1.47                 4.13
 ENERGY DRIFT PER ATOM [K]    =         -0.134947245257E+02  -0.106599971979E+02
 POTENTIAL ENERGY[hartree]    =         -0.110110181518E+04  -0.110107797984E+04
 KINETIC ENERGY [hartree]     =          0.334790808494E+00   0.311558818984E+00
 TEMPERATURE [K]              =                     369.000              343.394
 *******************************************************************************


 Number of electrons:                                                        512
 Number of occupied orbitals:                                                256
 Number of molecular orbitals:                                               256

 Number of orbital functions:                                               2560
 Number of independent orbital functions:                                   2560

 Extrapolation method: PS Nth order


 SCF WAVEFUNCTION OPTIMIZATION

  ----------------------------------- OT ---------------------------------------
  Minimizer      : DIIS                : direct inversion
                                         in the iterative subspace
                                         using   7 DIIS vectors
                                         safer DIIS on
  Preconditioner : FULL_KINETIC        : inversion of T + eS
  Precond_solver : DEFAULT
  stepsize       :    0.15000000                  energy_gap     :    0.20000000
  eps_taylor     :   0.10000E-15                  max_taylor     :             4
  ----------------------------------- OT ---------------------------------------

  Step     Update method      Time    Convergence         Total energy    Change
  ------------------------------------------------------------------------------
     1 OT DIIS     0.15E+00    0.3     0.00004011     -1101.0829342809 -1.10E+03
     2 OT DIIS     0.15E+00    0.2     0.00003295     -1101.0830775657 -1.43E-04
     3 OT DIIS     0.15E+00    0.2     0.00001490     -1101.0833518754 -2.74E-04
     4 OT DIIS     0.15E+00    0.2     0.00000897     -1101.0834071080 -5.52E-05

  *** SCF run converged in     4 steps ***


  Electronic density on regular grids:       -512.0000007415       -0.0000007415
  Core density on regular grids:              511.9999999906       -0.0000000094
  Total charge density on r-space grids:       -0.0000007508
  Total charge density g-space grids:          -0.0000007508

  Overlap energy of the core charge distribution:               0.00000077877949
  Self energy of the core charge distribution:              -2805.30499493854950
  Core Hamiltonian energy:                                    814.58618751196661
  Hartree energy:                                            1153.00177219570514
  Exchange-correlation energy:                               -263.36637265588564

  Total energy:                                             -1101.08340710798393

 ENERGY| Total FORCE_EVAL ( QS ) energy (a.u.):            -1101.083423184810954


 *******************************************************************************
 ENSEMBLE TYPE                =                                              NVE
 STEP NUMBER                  =                                                7
 TIME [fs]                    =                                         3.500000
 CONSERVED QUANTITY [hartree] =                              -0.110076647588E+04

                                              INSTANTANEOUS             AVERAGES
 CPU TIME [s]                 =                        1.26                 3.72
 ENERGY DRIFT PER ATOM [K]    =         -0.125926398973E+02  -0.109360890121E+02
 POTENTIAL ENERGY[hartree]    =         -0.110108342318E+04  -0.110107875746E+04
 KINETIC ENERGY [hartree]     =          0.316947308490E+00   0.312328603199E+00
 TEMPERATURE [K]              =                     349.333              344.242
 *******************************************************************************


 Number of electrons:                                                        512
 Number of occupied orbitals:                                                256
 Number of molecular orbitals:                                               256

 Number of orbital functions:                                               2560
 Number of independent orbital functions:                                   2560

 Extrapolation method: PS Nth order


 SCF WAVEFUNCTION OPTIMIZATION

  ----------------------------------- OT ---------------------------------------
  Minimizer      : DIIS                : direct inversion
                                         in the iterative subspace
                                         using   7 DIIS vectors
                                         safer DIIS on
  Preconditioner : FULL_KINETIC        : inversion of T + eS
  Precond_solver : DEFAULT
  stepsize       :    0.15000000                  energy_gap     :    0.20000000
  eps_taylor     :   0.10000E-15                  max_taylor     :             4
  ----------------------------------- OT ---------------------------------------

  Step     Update method      Time    Convergence         Total energy    Change
  ------------------------------------------------------------------------------
     1 OT DIIS     0.15E+00    0.3     0.00003934     -1101.0575993375 -1.10E+03
     2 OT DIIS     0.15E+00    0.2     0.00003220     -1101.0577372339 -1.38E-04
     3 OT DIIS     0.15E+00    0.2     0.00001302     -1101.0580145434 -2.77E-04
     4 OT DIIS     0.15E+00    0.2     0.00000937     -1101.0580508352 -3.63E-05

  *** SCF run converged in     4 steps ***


  Electronic density on regular grids:       -512.0000006088       -0.0000006088
  Core density on regular grids:              511.9999999927       -0.0000000073
  Total charge density on r-space grids:       -0.0000006162
  Total charge density g-space grids:          -0.0000006162

  Overlap energy of the core charge distribution:               0.00000054143077
  Self energy of the core charge distribution:              -2805.30499493854950
  Core Hamiltonian energy:                                    813.21035139300488
  Hartree energy:                                            1154.02258427294964
  Exchange-correlation energy:                               -262.98599210403296

  Total energy:                                             -1101.05805083519704

 ENERGY| Total FORCE_EVAL ( QS ) energy (a.u.):            -1101.058072647108020


 *******************************************************************************
 ENSEMBLE TYPE                =                                              NVE
 STEP NUMBER                  =                                                8
 TIME [fs]                    =                                         4.000000
 CONSERVED QUANTITY [hartree] =                              -0.110076580471E+04

                                              INSTANTANEOUS             AVERAGES
 CPU TIME [s]                 =                        1.26                 3.41
 ENERGY DRIFT PER ATOM [K]    =         -0.114888014536E+02  -0.110051780673E+02
 POTENTIAL ENERGY[hartree]    =         -0.110105807265E+04  -0.110107617186E+04
 KINETIC ENERGY [hartree]     =          0.292267936071E+00   0.309821019808E+00
 TEMPERATURE [K]              =                     322.132              341.479
 *******************************************************************************


 Number of electrons:                                                        512
 Number of occupied orbitals:                                                256
 Number of molecular orbitals:                                               256

 Number of orbital functions:                                               2560
 Number of independent orbital functions:                                   2560

 Extrapolation method: PS Nth order


 SCF WAVEFUNCTION OPTIMIZATION

  ----------------------------------- OT ---------------------------------------
  Minimizer      : DIIS                : direct inversion
                                         in the iterative subspace
                                         using   7 DIIS vectors
                                         safer DIIS on
  Preconditioner : FULL_KINETIC        : inversion of T + eS
  Precond_solver : DEFAULT
  stepsize       :    0.15000000                  energy_gap     :    0.20000000
  eps_taylor     :   0.10000E-15                  max_taylor     :             4
  ----------------------------------- OT ---------------------------------------

  Step     Update method      Time    Convergence         Total energy    Change
  ------------------------------------------------------------------------------
     1 OT DIIS     0.15E+00    0.3     0.00004063     -1101.0348904328 -1.10E+03
     2 OT DIIS     0.15E+00    0.2     0.00003307     -1101.0350368939 -1.46E-04
     3 OT DIIS     0.15E+00    0.2     0.00001525     -1101.0353096358 -2.73E-04
     4 OT DIIS     0.15E+00    0.2     0.00001093     -1101.0353590214 -4.94E-05
     5 OT DIIS     0.15E+00    0.2     0.00000786     -1101.0353880728 -2.91E-05

  *** SCF run converged in     5 steps ***


  Electronic density on regular grids:       -512.0000004818       -0.0000004818
  Core density on regular grids:              511.9999999968       -0.0000000032
  Total charge density on r-space grids:       -0.0000004851
  Total charge density g-space grids:          -0.0000004851

  Overlap energy of the core charge distribution:               0.00000043858940
  Self energy of the core charge distribution:              -2805.30499493854950
  Core Hamiltonian energy:                                    812.31303126916009
  Hartree energy:                                            1154.69416749629227
  Exchange-correlation energy:                               -262.73759233825245

  Total energy:                                             -1101.03538807276027

 ENERGY| Total FORCE_EVAL ( QS ) energy (a.u.):            -1101.035410333148320


 *******************************************************************************
 ENSEMBLE TYPE                =                                              NVE
 STEP NUMBER                  =                                                9
 TIME [fs]                    =                                         4.500000
 CONSERVED QUANTITY [hartree] =                              -0.110076529419E+04

                                              INSTANTANEOUS             AVERAGES
 CPU TIME [s]                 =                        1.44                 3.19
 ENERGY DRIFT PER ATOM [K]    =         -0.106491654236E+02  -0.109656211069E+02
 POTENTIAL ENERGY[hartree]    =         -0.110103541033E+04  -0.110107164280E+04
 KINETIC ENERGY [hartree]     =          0.270116144786E+00   0.305409367028E+00
 TEMPERATURE [K]              =                     297.717              336.616
 *******************************************************************************


 Number of electrons:                                                        512
 Number of occupied orbitals:                                                256
 Number of molecular orbitals:                                               256

 Number of orbital functions:                                               2560
 Number of independent orbital functions:                                   2560

 Extrapolation method: PS Nth order


 SCF WAVEFUNCTION OPTIMIZATION

  ----------------------------------- OT ---------------------------------------
  Minimizer      : DIIS                : direct inversion
                                         in the iterative subspace
                                         using   7 DIIS vectors
                                         safer DIIS on
  Preconditioner : FULL_KINETIC        : inversion of T + eS
  Precond_solver : DEFAULT
  stepsize       :    0.15000000                  energy_gap     :    0.20000000
  eps_taylor     :   0.10000E-15                  max_taylor     :             4
  ----------------------------------- OT ---------------------------------------

  Step     Update method      Time    Convergence         Total energy    Change
  ------------------------------------------------------------------------------
     1 OT DIIS     0.15E+00    0.3     0.00004272     -1101.0227185823 -1.10E+03
     2 OT DIIS     0.15E+00    0.2     0.00003547     -1101.0228816341 -1.63E-04
     3 OT DIIS     0.15E+00    0.2     0.00001954     -1101.0231905787 -3.09E-04
     4 OT DIIS     0.15E+00    0.2     0.00001351     -1101.0232865832 -9.60E-05
     5 OT DIIS     0.15E+00    0.2     0.00000909     -1101.0233423692 -5.58E-05

  *** SCF run converged in     5 steps ***


  Electronic density on regular grids:       -512.0000003316       -0.0000003316
  Core density on regular grids:              511.9999999981       -0.0000000019
  Total charge density on r-space grids:       -0.0000003335
  Total charge density g-space grids:          -0.0000003335

  Overlap energy of the core charge distribution:               0.00000042270337
  Self energy of the core charge distribution:              -2805.30499493854950
  Core Hamiltonian energy:                                    811.91272338365047
  Hartree energy:                                            1154.99784951713013
  Exchange-correlation energy:                               -262.62892075411912

  Total energy:                                             -1101.02334236918432

 ENERGY| Total FORCE_EVAL ( QS ) energy (a.u.):            -1101.023374986881208


 *******************************************************************************
 ENSEMBLE TYPE                =                                              NVE
 STEP NUMBER                  =                                               10
 TIME [fs]                    =                                         5.000000
 CONSERVED QUANTITY [hartree] =                              -0.110076505584E+04

                                              INSTANTANEOUS             AVERAGES
 CPU TIME [s]                 =                        1.44                 3.02
 ENERGY DRIFT PER ATOM [K]    =         -0.102571585049E+02  -0.108947748467E+02
 POTENTIAL ENERGY[hartree]    =         -0.110102337499E+04  -0.110106681602E+04
 KINETIC ENERGY [hartree]     =          0.258319149915E+00   0.300700345317E+00
 TEMPERATURE [K]              =                     284.714              331.426
 *******************************************************************************


 -------------------------------------------------------------------------------
 -                                                                             -
 -                                DBCSR STATISTICS                             -
 -                                                                             -
 -------------------------------------------------------------------------------
 COUNTER                                    TOTAL       BLAS       SMM       ACC
 flops     9 x    32 x    32            207618048     100.0%      0.0%      0.0%
 flops    22 x    32 x    32            253755392     100.0%      0.0%      0.0%
 flops   316 x    32 x   120           9241559040     100.0%      0.0%      0.0%
 flops   316 x    32 x    98           9434091520     100.0%      0.0%      0.0%
 flops   324 x    32 x   120           9475522560     100.0%      0.0%      0.0%
 flops   324 x    32 x    98           9672929280     100.0%      0.0%      0.0%
 flops   316 x    32 x    32          21454913536     100.0%      0.0%      0.0%
 flops   324 x    32 x    32          21998075904     100.0%      0.0%      0.0%
 flops   316 x    32 x   111          23508215808     100.0%      0.0%      0.0%
 flops   324 x    32 x   111          24103360512     100.0%      0.0%      0.0%
 flops    32 x    32 x   120          26487029760     100.0%      0.0%      0.0%
 flops    32 x    32 x    32          26877100032     100.0%      0.0%      0.0%
 flops    32 x    32 x    98          27038842880     100.0%      0.0%      0.0%
 flops   311 x    32 x   120          27285995520     100.0%      0.0%      0.0%
 flops   311 x    32 x    98          27854453760     100.0%      0.0%      0.0%
 flops   329 x    32 x   120          28865249280     100.0%      0.0%      0.0%
 flops   329 x    32 x    98          29466608640     100.0%      0.0%      0.0%
 flops     9 x     9 x    32          44168260608     100.0%      0.0%      0.0%
 flops    22 x     9 x    32          53835724800     100.0%      0.0%      0.0%
 flops     9 x    22 x    32          53885500416     100.0%      0.0%      0.0%
 flops   311 x    32 x    32          63346311168     100.0%      0.0%      0.0%
 flops    22 x    22 x    32          67007283200     100.0%      0.0%      0.0%
 flops   329 x    32 x    32          67012657152     100.0%      0.0%      0.0%
 flops    32 x    32 x   111          67376381952     100.0%      0.0%      0.0%
 flops   311 x    32 x   111          69408751104     100.0%      0.0%      0.0%
 flops   329 x    32 x   111          73425977856     100.0%      0.0%      0.0%
 flops     9 x    32 x     9         185405884416     100.0%      0.0%      0.0%
 flops    22 x    32 x     9         227871249408     100.0%      0.0%      0.0%
 flops     9 x    32 x    22         227871249408     100.0%      0.0%      0.0%
 flops    22 x    32 x    22         279130931200     100.0%      0.0%      0.0%
 flops inhomo. stacks                101355356160     100.0%      0.0%      0.0%
 flops total                         1.904327E+12     100.0%      0.0%      0.0%
 flops max/rank                     28.411769E+09     100.0%      0.0%      0.0%
 matmuls inhomo. stacks                    138240     100.0%      0.0%      0.0%
 matmuls total                          101446456     100.0%      0.0%      0.0%
 number of processed stacks               3994496     100.0%      0.0%      0.0%
 average stack size                                    25.4       0.0       0.0
 marketing flops                     2.107592E+12
 -------------------------------------------------------------------------------
 # multiplications                           2286
 max memory usage/rank             222.228480E+06
 # max total images/rank                        3
 # max 3D layers                                1
 # MPI messages exchanged                40379904
 MPI messages size (bytes):
  total size                       743.988658E+09
  min size                           0.000000E+00
  max size                         315.840000E+03
  average size                      18.424727E+03
 MPI breakdown and total messages size (bytes):
             size <=      128            28515032                        0
       128 < size <=     8192             3122664              25580863488
      8192 < size <=    32768             6032256             164720803840
     32768 < size <=   131072              970048              79466332160
    131072 < size <=  4194304             1739904             474223004224
   4194304 < size <= 16777216                   0                        0
  16777216 < size                               0                        0
 -------------------------------------------------------------------------------

 *** WARNING in dbcsr/mm/dbcsr_mm.F:267 :: Using a non-square number of ***
 *** MPI ranks might lead to poor performance.                          ***
 *** Used ranks: 192                                                    ***
 *** Suggested: 196 400                                                 ***

 -------------------------------------------------------------------------------
 
 MEMORY| Estimated peak process memory [MiB]                                 212

 -------------------------------------------------------------------------------
 -                                                                             -
 -                         MESSAGE PASSING PERFORMANCE                         -
 -                                                                             -
 -------------------------------------------------------------------------------

 ROUTINE             CALLS      AVE VOLUME [Bytes]
 MP_Group              158
 MP_Bcast             3657                  51309.
 MP_Allreduce        15273                    221.
 MP_Sync              1482
 MP_Alltoall         10760               91184872.
 MP_ISendRecv        90916                   2760.
 MP_Wait            580681
 MP_comm_split          50
 MP_ISend           458619                  12792.
 MP_IRecv           457769                  12610.
 MP_Memory          173930
 -------------------------------------------------------------------------------


 -------------------------------------------------------------------------------
 -                                                                             -
 -                           R E F E R E N C E S                               -
 -                                                                             -
 -------------------------------------------------------------------------------
 
 CP2K version 5.1, the CP2K developers group (2017).
 CP2K is freely available from https://www.cp2k.org/ .

 Schuett, Ole; Messmer, Peter; Hutter, Juerg; VandeVondele, Joost. 
 Electronic Structure Calculations on Graphics Processing Units, John Wiley & Sons, Ltd, 173-190 (2016). 
 GPU-Accelerated Sparse Matrix-Matrix Multiplication for Linear Scaling Density Functional Theory.
 http://dx.doi.org/10.1002/9781118670712.ch8


 Borstnik, U; VandeVondele, J; Weber, V; Hutter, J. 
 PARALLEL COMPUTING, 40 (5-6), 47-58 (2014). 
 Sparse matrix multiplication: The distributed block-compressed sparse
 row library.
 http://dx.doi.org/10.1016/j.parco.2014.03.012


 Hutter, J; Iannuzzi, M; Schiffmann, F; VandeVondele, J. 
 WILEY INTERDISCIPLINARY REVIEWS-COMPUTATIONAL MOLECULAR SCIENCE, 4 (1), 15-25 (2014). 
 CP2K: atomistic simulations of condensed matter systems.
 http://dx.doi.org/10.1002/wcms.1159


 Krack, M. 
 THEORETICAL CHEMISTRY ACCOUNTS, 114 (1-3), 145-152 (2005). 
 Pseudopotentials for H to Kr optimized for gradient-corrected
 exchange-correlation functionals.
 http://dx.doi.org/10.1007/s00214-005-0655-y


 VandeVondele, J; Krack, M; Mohamed, F; Parrinello, M; Chassaing, T;
 Hutter, J. COMPUTER PHYSICS COMMUNICATIONS, 167 (2), 103-128 (2005). 
 QUICKSTEP: Fast and accurate density functional calculations using a
 mixed Gaussian and plane waves approach.
 http://dx.doi.org/10.1016/j.cpc.2004.12.014


 Frigo, M; Johnson, SG. 
 PROCEEDINGS OF THE IEEE, 93 (2), 216-231 (2005). 
 The design and implementation of FFTW3.
 http://dx.doi.org/10.1109/JPROC.2004.840301


 VandeVondele, J; Hutter, J. 
 JOURNAL OF CHEMICAL PHYSICS, 118 (10), 4365-4369 (2003). 
 An efficient orbital transformation method for electronic structure
 calculations.
 http://dx.doi.org/10.1063/1.1543154


 Hartwigsen, C; Goedecker, S; Hutter, J. 
 PHYSICAL REVIEW B, 58 (7), 3641-3662 (1998). 
 Relativistic separable dual-space Gaussian pseudopotentials from H to Rn.
 http://dx.doi.org/10.1103/PhysRevB.58.3641


 Lippert, G; Hutter, J; Parrinello, M. 
 MOLECULAR PHYSICS, 92 (3), 477-487 (1997). 
 A hybrid Gaussian and plane wave density functional scheme.
 http://dx.doi.org/10.1080/002689797170220


 Goedecker, S; Teter, M; Hutter, J. 
 PHYSICAL REVIEW B, 54 (3), 1703-1710 (1996). 
 Separable dual-space Gaussian pseudopotentials.
 http://dx.doi.org/10.1103/PhysRevB.54.1703


 -------------------------------------------------------------------------------
 -                                                                             -
 -                                T I M I N G                                  -
 -                                                                             -
 -------------------------------------------------------------------------------
 SUBROUTINE                       CALLS  ASD         SELF TIME        TOTAL TIME
                                MAXIMUM       AVERAGE  MAXIMUM  AVERAGE  MAXIMUM
 CP2K                                 1  1.0    0.064    0.083   30.772   30.773
 qs_mol_dyn_low                       1  2.0    0.010    0.021   30.198   30.207
 qs_forces                           11  3.9    0.004    0.014   30.071   30.087
 qs_energies                         11  4.9    0.007    0.025   28.724   28.745
 scf_env_do_scf                      11  5.9    0.001    0.006   26.105   26.106
 scf_env_do_scf_inner_loop          108  6.5    0.005    0.012   24.013   24.025
 velocity_verlet                     10  3.0    0.004    0.009   16.371   16.377
 qs_scf_new_mos                     108  7.5    0.001    0.001   11.072   11.259
 qs_scf_loop_do_ot                  108  8.5    0.001    0.001   11.071   11.258
 dbcsr_multiply_generic            2286 12.5    0.109    0.127   10.428   10.731
 ot_scf_mini                        108  9.5    0.005    0.009   10.437   10.584
 rebuild_ks_matrix                  119  8.3    0.001    0.004    8.815    8.953
 qs_ks_build_kohn_sham_matrix       119  9.3    0.017    0.036    8.814    8.952
 qs_ks_update_qs_env                119  7.6    0.001    0.003    7.874    8.000
 multiply_cannon                   2286 13.5    0.604    0.651    6.570    7.439
 sum_up_and_integrate               119 10.3    0.009    0.014    6.979    6.995
 integrate_v_rspace                 119 11.3    3.085    3.287    6.970    6.984
 qs_rho_update_rho                  119  7.7    0.001    0.003    6.420    6.532
 calculate_rho_elec                 119  8.7    2.460    2.638    6.419    6.531
 ot_mini                            108 10.5    0.002    0.005    5.583    5.740
 mp_waitall_1                    571036 15.4    3.891    5.493    3.891    5.493
 qs_ot_get_derivative               108 11.5    0.001    0.001    4.307    4.453
 multiply_cannon_metrocomm3       54864 14.5    0.134    0.142    1.948    4.258
 rs_pw_transfer                     974 11.9    0.007    0.008    4.019    4.144
 qs_ot_get_p                        119 10.4    0.002    0.012    3.070    3.250
 density_rs2pw                      119  9.7    0.004    0.004    2.733    2.843
 potential_pw2rs                    119 12.3    0.004    0.005    2.657    2.672
 mp_alltoall_d11v                  2141 13.8    2.433    2.661    2.433    2.661
 make_m2s                          4572 13.5    0.123    0.136    2.359    2.601
 mp_waitany                       12285 13.9    2.284    2.523    2.284    2.523
 rs_distribute_matrix               249 10.9    0.115    0.144    2.154    2.410
 multiply_cannon_metrocomm1       54864 14.5    0.146    0.156    1.214    2.312
 make_images                       4572 14.5    0.152    0.163    1.983    2.211
 multiply_cannon_multrec          54864 14.5    0.730    2.092    0.738    2.100
 init_scf_loop                       11  6.9    0.002    0.008    2.060    2.070
 pw_transfer                       1439 11.6    0.053    0.059    1.780    1.840
 fft_wrap_pw1pw2                   1201 12.6    0.005    0.006    1.716    1.775
 init_scf_run                        11  5.9    0.000    0.005    1.750    1.751
 scf_env_initial_rho_setup           11  6.9    0.002    0.017    1.750    1.751
 qs_ot_get_derivative_diag           49 12.0    0.001    0.001    1.538    1.613
 qs_ot_get_derivative_taylor         59 13.0    0.001    0.001    1.383    1.457
 mp_sum_l                          4051 13.7    0.872    1.433    0.872    1.433
 qs_ot_p2m_diag                      50 11.0    0.002    0.005    1.367    1.381
 wfi_extrapolate                     11  7.9    0.002    0.017    1.347    1.363
 ot_diis_step                       108 11.5    0.007    0.009    1.250    1.252
 rs_pw_transfer_PW2RS_50            119 14.3    0.121    0.140    1.036    1.215
 multiply_cannon_metrocomm4       52578 14.5    0.130    0.141    0.623    1.203
 apply_preconditioner_dbcsr         119 12.6    0.000    0.000    1.105    1.186
 apply_single                       119 13.6    0.000    0.000    1.104    1.186
 cp_dbcsr_syevd                      50 12.0    0.003    0.006    1.104    1.106
 fft_wrap_pw1pw2_140                487 13.2    0.043    0.050    0.974    1.044
 arnoldi_extremal                   119 11.4    0.003    0.011    0.927    1.029
 rs_pw_transfer_RS2PW_50            119 11.7    0.117    0.134    0.950    1.028
 arnoldi_normal_ev                  119 12.4    0.007    0.019    0.924    1.023
 make_images_sizes                 4572 15.5    0.005    0.008    0.895    1.018
 mp_alltoall_i44                   4572 16.5    0.890    1.014    0.890    1.014
 qs_ks_update_qs_env_forces          11  4.9    0.000    0.000    0.981    0.994
 prepare_preconditioner              11  7.9    0.000    0.000    0.969    0.988
 make_preconditioner                 11  8.9    0.000    0.000    0.969    0.987
 fft3d_pb                           487 14.2    0.216    0.300    0.900    0.973
 mp_allgather_i34                  2286 14.5    0.556    0.961    0.556    0.961
 mp_irecv_dv                     222226 15.5    0.362    0.959    0.362    0.959
 cp_fm_syevd                         50 13.0    0.846    0.888    0.917    0.931
 make_full_inverse_cholesky          11  9.9    0.000    0.000    0.885    0.907
 make_images_data                  4572 15.5    0.057    0.065    0.665    0.897
 build_subspace                     119 13.4    0.007    0.011    0.812    0.868
 multiply_cannon_metrocomm2      157734 14.5    0.363    0.383    0.672    0.826
 calculate_dm_sparse                119  9.5    0.000    0.001    0.734    0.820
 rs_pw_transfer_RS2PW_140           130 11.5    0.191    0.222    0.621    0.804
 mp_isend_dv                     224861 15.5    0.319    0.800    0.319    0.800
 fft3d_ps                           714 15.0    0.035    0.060    0.726    0.797
 dbcsr_complete_redistribute        329 12.2    0.035    0.060    0.738    0.796
 hybrid_alltoall_any               4725 16.4    0.049    0.080    0.466    0.776
 rs_pw_transfer_PW2RS_140           130 13.9    0.240    0.296    0.617    0.747
 mp_alltoall_z22v                  1688 16.5    0.689    0.742    0.689    0.742
 cp_fm_syevd_base                    50 14.0    0.031    0.737    0.031    0.737
 mp_sum_d                          4133 11.9    0.546    0.721    0.546    0.721
 cp_dbcsr_sm_fm_multiply             37  9.5    0.001    0.001    0.696    0.704
 mp_bcast_b                        1737 13.6    0.362    0.694    0.362    0.694
 qs_ot_get_orbitals                 108 10.5    0.000    0.000    0.671    0.683
 qs_energies_init_hamiltonians       11  5.9    0.006    0.020    0.647    0.670
 mp_sum_dv                         6497 15.2    0.392    0.649    0.392    0.649
 mp_sync                           1482 16.9    0.400    0.572    0.400    0.572
 dbcsr_matrix_vector_mult          1669 14.0    0.011    0.014    0.317    0.567
 copy_dbcsr_to_fm                   153 11.3    0.002    0.003    0.507    0.566
 qs_env_update_s_mstruct             11  6.9    0.000    0.000    0.473    0.519
 cp_dbcsr_sm_fm_multiply_core        37 10.5    0.001    0.017    0.441    0.485
 fft_wrap_pw1pw2_50                 238 14.0    0.004    0.008    0.410    0.477
 copy_fm_to_dbcsr                   176 11.2    0.001    0.001    0.387    0.444
 dbcsr_col_vec_to_rep_row          1669 15.0    0.006    0.007    0.130    0.437
 cp_fm_cholesky_decompose            22 10.9    0.414    0.422    0.414    0.422
 dbcsr_trace_a_b_d                 1205 11.9    0.023    0.036    0.247    0.373
 yz_to_xz                           357 17.3    0.021    0.039    0.323    0.372
 cp_fm_cholesky_invert               11 10.9    0.368    0.372    0.368    0.372
 mp_alltoall_i22                    627 13.8    0.231    0.350    0.231    0.350
 cube_transpose_4                   249 15.8    0.012    0.014    0.276    0.344
 qs_create_task_list                 11  7.9    0.000    0.003    0.331    0.336
 generate_qs_task_list               11  8.9    0.025    0.034    0.331    0.336
 rs_pw_transfer_PW2RS_20            119 14.3    0.144    0.150    0.291    0.331
 make_basis_sm                       11  9.8    0.001    0.003    0.322    0.325
 distribute_tasks                    11  9.9    0.006    0.007    0.306    0.313
 dbcsr_finalize                    5856 13.6    0.020    0.037    0.265    0.309
 xz_to_yz                           357 14.7    0.017    0.034    0.288    0.309
 build_core_hamiltonian_matrix_      11  4.9    0.000    0.000    0.240    0.304
 rs_grid_zero                       736 11.5    0.270    0.299    0.270    0.299
 qs_init_subsys                       1  2.0    0.011    0.041    0.290    0.298
 calculate_first_density_matrix       1  7.0    0.002    0.026    0.285    0.288
 cube_transpose_3                   238 14.5    0.017    0.022    0.250    0.279
 dbcsr_merge_all                   4927 14.8    0.059    0.078    0.230    0.274
 mp_alltoall_i11v                  1575 13.9    0.226    0.271    0.226    0.271
 dbcsr_make_images_dense           3978 14.8    0.074    0.083    0.219    0.267
 mp_sum_b                          4022 13.8    0.233    0.262    0.233    0.262
 rs_pw_transfer_RS2PW_20            119 11.7    0.115    0.120    0.248    0.257
 reorthogonalize_vectors             10  9.0    0.000    0.000    0.242    0.246
 ot_scf_init                         11  7.9    0.001    0.002    0.216    0.227
 qs_ot_p2m_taylor                    69 11.7    0.001    0.009    0.196    0.225
 cube_transpose_2                   606 15.1    0.017    0.025    0.124    0.222
 cp_dbcsr_plus_fm_fm_t_native        22  8.9    0.000    0.003    0.201    0.220
 dbcsr_create_new                 39029 15.1    0.099    0.113    0.201    0.218
 qs_energies_compute_matrix_w        11  5.9    0.000    0.003    0.195    0.208
 calculate_w_matrix_ot               11  6.9    0.000    0.000    0.194    0.208
 dbcsr_new_transposed               954 13.3    0.008    0.012    0.162    0.207
 fft_wrap_pw1pw2_20                 238 14.0    0.002    0.004    0.197    0.207
 mp_isend_dm3                      5412 13.9    0.100    0.199    0.100    0.199
 dbcsr_desymmetrize_deep            153 12.3    0.006    0.008    0.138    0.199
 external_control                   118  7.2    0.000    0.001    0.103    0.196
 dbcsr_redistribute                 145 14.7    0.005    0.006    0.144    0.191
 cp_gemm                             81  9.0    0.000    0.000    0.183    0.190
 cp_gemm_fm_gemm                     81 10.0    0.000    0.002    0.182    0.189
 cp_fm_gemm                          81 11.0    0.182    0.189    0.182    0.189
 mp_bcast_av                        564  1.0    0.016    0.031    0.095    0.189
 build_core_hamiltonian_matrix       11  6.9    0.001    0.012    0.135    0.188
 dbcsr_make_dense_low              9815 15.6    0.051    0.058    0.123    0.187
 calculate_rho_core                  11  7.9    0.006    0.012    0.140    0.185
 create_local_tasks                  11 10.9    0.003    0.004    0.176    0.178
 init_qs_kind_set                     1  3.0    0.000    0.000    0.159    0.176
 init_qs_kind                         2  4.0    0.001    0.006    0.159    0.176
 build_core_ppl_forces               11  5.9    0.120    0.176    0.120    0.176
 init_orb_basis_set                   2  5.0    0.000    0.004    0.158    0.175
 init_cphi_and_sphi                   2  6.0    0.158    0.174    0.158    0.174
 cube_transpose_1                   595 16.2    0.010    0.012    0.095    0.156
 calculate_ecore_overlap             22  5.9    0.000    0.002    0.076    0.152
 transfer_dbcsr_to_fm                11 10.9    0.000    0.000    0.135    0.152
 mp_isendrecv_dv                  90916 14.0    0.125    0.139    0.125    0.139
 make_images_pack                  4572 15.5    0.083    0.128    0.093    0.139
 mp_isend_iv                     221183 15.5    0.123    0.137    0.123    0.137
 rs_pw_transfer_PW2RS_10            119 14.3    0.055    0.060    0.134    0.137
 fft_wrap_pw1pw2_10                 238 14.0    0.001    0.003    0.131    0.136
 mp_sum_dm                          438  4.9    0.112    0.135    0.112    0.135
 qs_env_setup                         1  3.0    0.005    0.018    0.114    0.135
 mp_bcast_dv                       1719 16.0    0.074    0.135    0.074    0.135
 arnoldi_init                       119 13.4    0.002    0.007    0.081    0.134
 mp_alltoall_l11v                    11 11.9    0.123    0.128    0.123    0.128
 Gram_Schmidt_ortho_d              1550 14.0    0.002    0.004    0.074    0.126
 dbcsr_cholesky_invert               11 12.9    0.088    0.090    0.124    0.124
 qs_env_rebuild_pw_env               23  5.3    0.003    0.011    0.099    0.121
 rs_pw_transfer_RS2PW_10            119 11.7    0.044    0.046    0.116    0.120
 qs_vxc_create                      119 10.3    0.003    0.014    0.099    0.118
 pw_env_rebuild                       1  5.0    0.007    0.016    0.095    0.118
 merge_index                       4927 15.8    0.102    0.117    0.102    0.117
 DGKS_ortho_d                      1550 14.0    0.001    0.002    0.074    0.115
 xc_vxc_pw_create                   119 11.3    0.009    0.024    0.096    0.115
 mp_bcast_im                        120 14.3    0.055    0.111    0.055    0.111
 make_dense_data                   9815 16.6    0.036    0.079    0.045    0.103
 transfer_fm_to_dbcsr                11  9.9    0.000    0.000    0.082    0.102
 dbcsr_data_new                  100214 15.8    0.065    0.081    0.081    0.100
 build_core_ppl                      11  7.9    0.061    0.099    0.061    0.099
 load_balance_distributed            22 10.9    0.000    0.000    0.093    0.098
 dbcsr_destroy                    37940 14.2    0.056    0.058    0.093    0.097
 setup_buffer_matrices             4572 14.5    0.028    0.031    0.092    0.096
 dbcsr_add_d                       1881 12.8    0.002    0.002    0.077    0.096
 dbcsr_add_anytype                 1881 13.8    0.013    0.024    0.075    0.094
 cp_dbcsr_cholesky_decompose         11 12.9    0.045    0.050    0.089    0.094
 dbcsr_special_finalize            9144 15.5    0.014    0.015    0.077    0.093
 mp_sum_iv                          363 11.4    0.062    0.088    0.062    0.088
 build_overlap_matrix                22  6.9    0.033    0.055    0.060    0.083
 dbcsr_make_dense                  1859 13.9    0.008    0.009    0.059    0.082
 dbcsr_data_release              181777 16.1    0.058    0.067    0.069    0.079
 create_qs_kind_set                   1  2.0    0.002    0.012    0.057    0.077
 build_core_ppnl_forces              11  5.9    0.065    0.075    0.065    0.075
 read_qs_kind                         2  3.0    0.020    0.029    0.056    0.075
 topology_control                     1  2.0    0.007    0.032    0.053    0.074
 get_current_loads                  132 11.9    0.004    0.006    0.060    0.074
 dbcsr_make_index_exist           39029 16.1    0.046    0.062    0.057    0.073
 get_fft_scratch                   1202 15.6    0.056    0.064    0.063    0.072
 mp_irecv_iv                     220758 15.5    0.063    0.071    0.063    0.071
 mp_cart_sub                        313 13.3    0.065    0.069    0.065    0.069
 integrate_v_core_rspace             11  7.9    0.005    0.008    0.057    0.069
 dbcsr_copy                        2232 11.8    0.010    0.020    0.050    0.066
 calculate_atomic_block_dm            1  8.0    0.018    0.032    0.059    0.065
 mp_maxloc_dv                      1129  1.0    0.052    0.063    0.052    0.063
 md_write_output                     11  3.9    0.002    0.040    0.005    0.063
 update_particle_set                 20  4.0    0.000    0.000    0.055    0.063
 build_kinetic_matrix                22  6.9    0.039    0.059    0.040    0.061
 md_output                           10  3.0    0.000    0.002    0.011    0.060
 fft3d_s                              1  2.0    0.001    0.005    0.053    0.060
 compute_load_list                   44 11.9    0.016    0.023    0.048    0.059
 mp_bcast_i                         101  2.8    0.037    0.058    0.037    0.058
 quick_finalize                    8509 16.7    0.019    0.022    0.046    0.056
 buffer_matrices_ensure_size       4572 14.5    0.032    0.048    0.039    0.055
 pw_poisson_solve                   119 10.3    0.019    0.021    0.053    0.055
 dbcsr_make_undense                1859 13.9    0.021    0.034    0.036    0.054
 mp_alltoall_l                      143 12.8    0.038    0.054    0.038    0.054
 parser_read_line                  2671  4.0    0.001    0.001    0.036    0.054
 parser_read_line_low                 4  5.0    0.002    0.017    0.035    0.053
 broadcast_input_information          4  6.0    0.000    0.000    0.033    0.052
 xc_rho_set_and_dset_create         119 12.3    0.004    0.013    0.043    0.052
 mp_comm_dup                          8  6.5    0.027    0.052    0.027    0.052
 optimize_load_list                  22 11.9    0.000    0.000    0.043    0.049
 dbcsr_iterator_start             34178 15.7    0.030    0.041    0.037    0.049
 dbcsr_work_create                14684 14.9    0.020    0.042    0.027    0.049
 dbcsr_mm_multrec_init             2286 14.5    0.003    0.008    0.041    0.049
 dbcsr_data_copy_aa2               2816 14.7    0.029    0.048    0.029    0.048
 tree_to_linear_d                  1073 14.6    0.034    0.048    0.034    0.048
 dbcsr_gershgorin_norm               48 11.0    0.000    0.000    0.027    0.047
 connectivity_control                 1  3.0    0.006    0.029    0.030    0.047
 dbcsr_mm_csr_init                 2286 15.5    0.032    0.039    0.038    0.046
 cp_fm_upper_to_full                 22 12.4    0.031    0.045    0.031    0.045
[...]
 mp_allgather_l                     143 12.8    0.021    0.025    0.021    0.025
 cp_dbcsr_alloc_block_from_nbl       88  7.7    0.003    0.018    0.012    0.024
 coordinate_control                   1  3.0    0.000    0.000    0.004    0.024
 coordinate_control_READ_COORDI       1  4.0    0.001    0.023    0.004    0.024
 compute_evals                      119 13.4    0.016    0.024    0.016    0.024
 pw_scatter_p                       595 15.2    0.016    0.023    0.016    0.023
 sg_erf                               5 10.0    0.001    0.022    0.001    0.022
 write_trajectory                    44  4.9    0.002    0.009    0.002    0.022
 read_atoms_input                     1  5.0    0.003    0.022    0.003    0.022
 dbcsr_reserve_blocks               740 14.3    0.009    0.020    0.011    0.021
 create_grid_atom                     2  9.0    0.001    0.021    0.001    0.021
 overlap_ab                       14108  7.9    0.015    0.021    0.015    0.021
 topology_connectivity_pack_12        1  4.0    0.001    0.021    0.001    0.021
 init_interaction_radii               1  3.0    0.002    0.021    0.002    0.021
 scf_post_calculation_gpw            11  5.9    0.002    0.008    0.007    0.020
 topology_connectivity_pack_4         1  4.0    0.001    0.020    0.001    0.020
 wfs_update                          11  5.9    0.000    0.016    0.002    0.020
 topology_connectivity_pack_3         1  4.0    0.000    0.019    0.000    0.019
 topology_generate_bond_6             1  5.0    0.001    0.019    0.001    0.019
 compute_max_radius                   1  6.0    0.016    0.019    0.016    0.019
 mp_deallocate_d                  48931 16.6    0.018    0.019    0.018    0.019
 topology_generate_molecule           1  4.0    0.001    0.018    0.001    0.019
 topology_generate_molecule_PAR       1  5.0    0.001    0.019    0.001    0.019
 topology_coordinate_pack             1  3.0    0.000    0.000    0.003    0.019
 topology_coordinate_pack_1           1  4.0    0.002    0.019    0.002    0.019
 dbcsr_work_destroy_all           14684 15.9    0.014    0.015    0.018    0.019
 write_available_results             11  6.9    0.000    0.013    0.004    0.019
 topology_connectivity_pack_2         1  4.0    0.002    0.019    0.002    0.019
 cp_fm_to_fm_matrix                  21  7.9    0.001    0.019    0.001    0.019
 contract2add                        10 10.0    0.001    0.018    0.001    0.018
 topology_generate_bond_2             1  5.0    0.004    0.018    0.004    0.018
 topology_coordinate_pack_2           1  4.0    0.000    0.018    0.000    0.018
 load_balance_replicated             11 10.9    0.001    0.001    0.017    0.018
 mp_comm_split                       50 14.0    0.016    0.017    0.016    0.018
 dbcsr_merge_single_wm             1281 14.5    0.006    0.011    0.010    0.017
 atom_relint_setup                    2  9.0    0.000    0.017    0.000    0.017
 topology_connectivity_pack_11        1  4.0    0.001    0.017    0.001    0.017
 topology_coordinate_pack_7a          1  4.0    0.000    0.016    0.000    0.016
 topology_generate_onfo               1  4.0    0.001    0.016    0.001    0.016
 setup_rec_index_2d                4572 14.5    0.011    0.016    0.011    0.016
 distribute_molecules_2d              1  4.0    0.004    0.016    0.004    0.016
 sort_neighbor_lists                  1  7.0    0.001    0.016    0.001    0.016
 topology_connectivity_pack_9         1  4.0    0.000    0.016    0.000    0.016
 dbcsr_copy_into_existing            22  7.9    0.002    0.014    0.003    0.016
 write_mo_free_results               11  7.9    0.002    0.015    0.003    0.015
 write_particle_coordinates          11  5.9    0.000    0.015    0.000    0.015
 external_c_potential                22  5.9    0.001    0.015    0.001    0.015
 topology_coordinate_pack_5           1  4.0    0.000    0.015    0.000    0.015
 check_generate_mol                   1  6.0    0.000    0.015    0.000    0.015
 topology_connectivity_pack_13        1  4.0    0.001    0.014    0.001    0.014
 fist_neighbor_init                   1  8.0    0.001    0.014    0.001    0.014
 pw_grid_distribute                   4  8.0    0.001    0.002    0.014    0.014
 topology_generate_bond_1             1  5.0    0.001    0.014    0.001    0.014
 mp_allocate_i                    38331 17.0    0.013    0.014    0.013    0.014
 dbcsr_add_wm_from_matrix           443 12.9    0.001    0.003    0.010    0.014
 write_mo_dependent_results          11  7.9    0.001    0.014    0.002    0.014
 mp_max_l                            22  2.0    0.012    0.014    0.012    0.014
 mp_sum_root_iv                      22 12.9    0.007    0.013    0.007    0.013
 pw_axpy                            595 10.6    0.009    0.013    0.009    0.013
 qs_scf_post_ps_implicit             11  8.9    0.000    0.013    0.000    0.013
 topology_connectivity_pack_10        1  4.0    0.000    0.013    0.000    0.013
 topology_connectivity_pack_5         1  4.0    0.000    0.013    0.000    0.013
 mp_bcast_iv                         39  3.9    0.010    0.012    0.010    0.012
 mp_deallocate_i                  38331 16.7    0.010    0.012    0.010    0.012
 write_restart                       10  4.0    0.000    0.011    0.009    0.012
 dbcsr_set                         4172 14.9    0.004    0.009    0.008    0.012
 create_fast_row_vec_access        1669 15.0    0.002    0.005    0.008    0.012
 read_tddfpt2_control                 1  3.0    0.000    0.012    0.000    0.012
 restraint_control                   11  3.9    0.002    0.007    0.005    0.012
 mp_bcast_am                          4  7.0    0.004    0.007    0.009    0.012
 dbcsr_fill_wm_from_matrix          443 13.9    0.003    0.004    0.008    0.012
 read_qs_section                      1  3.0    0.001    0.012    0.001    0.012
 calculate_atom_vxc_lda              12 11.0    0.001    0.011    0.001    0.011
 update_input                         1  5.0    0.005    0.010    0.008    0.011
 build_neighbor_lists_sac_ppl        11  7.9    0.010    0.011    0.010    0.011
 dbcsr_iterator_seek              34178 16.7    0.007    0.010    0.007    0.010
 create_fast_col_vec_access        1669 15.0    0.001    0.004    0.007    0.010
 write_dft_control                    1  3.0    0.000    0.010    0.000    0.010
 topology_set_atm_mass                1  4.0    0.000    0.010    0.000    0.010
 dbcsr_index_prune_deleted         7956 15.8    0.008    0.010    0.008    0.010
 distribute_molecules_1d              1  3.0    0.000    0.010    0.000    0.010
 rs_grid_create_descriptor            4  6.0    0.002    0.003    0.007    0.010
 update_motion                        1  6.0    0.000    0.009    0.001    0.010
 topology_constraint_pack             1  3.0    0.000    0.000    0.000    0.010
 update_motion_AVERAGES               1  7.0    0.001    0.010    0.001    0.010
 topology_constraint_pack_3           1  4.0    0.000    0.010    0.000    0.010
 write_ks_matrix_csr                 11  8.9    0.000    0.010    0.000    0.010
 cp_fm_create                       325 11.8    0.002    0.009    0.002    0.009
 topology_molecules_check             1  4.0    0.000    0.009    0.000    0.009
 scf_c_create                         1  3.0    0.000    0.009    0.000    0.009
 qs_scf_ensure_mos                   11  5.9    0.004    0.009    0.004    0.009
 make_basic_distribution              1  5.0    0.000    0.009    0.000    0.009
 dbcsr_make_index_list             9144 14.5    0.007    0.009    0.007    0.009
 mp_sum_lv                           36  3.5    0.006    0.009    0.006    0.009
 scf_env_create                       1  5.0    0.001    0.009    0.001    0.009
 copy_fm_to_dbcsr_bc                176 12.2    0.003    0.004    0.008    0.009
 dbcsr_mm_multrec_finalize         2286 15.5    0.007    0.007    0.008    0.009
 dbcsr_get_global_row_map          2286 13.5    0.001    0.009    0.001    0.009
 update_subsys                        1  6.0    0.001    0.008    0.002    0.009
 dbcsr_make_index_local_row        9144 14.5    0.005    0.008    0.005    0.008
 dbcsr_matrix_vector_mult_local    1669 15.0    0.003    0.005    0.006    0.008
 topology_generate_bend               1  4.0    0.000    0.008    0.000    0.008
 qs_env_rebuild_rho                  11  7.9    0.000    0.001    0.002    0.008
 qs_rho_rebuild                      11  8.9    0.001    0.007    0.002    0.008
 section_coord_val_set                1  7.0    0.001    0.008    0.001    0.008
 qs_scf_post_moments                 11  6.9    0.000    0.008    0.000    0.008
 qs_scf_ensure_work_matrices         11  5.9    0.000    0.002    0.005    0.008
 balance_global_list                 22 12.9    0.000    0.008    0.000    0.008
 create_col_vec_from_matrix         238 13.4    0.001    0.005    0.004    0.008
 qs_scf_post_transport               11  8.9    0.000    0.007    0.000    0.007
 qs_scf_loop_print                  108  7.5    0.002    0.007    0.002    0.007
 create_fast_row_vec_access_d      1669 16.0    0.003    0.004    0.006    0.007
 pw_zero                            119 10.7    0.006    0.007    0.006    0.007
 dbcsr_zero                        4270 15.8    0.005    0.007    0.005    0.007
 contract2                           15 10.0    0.000    0.007    0.000    0.007
 dbcsr_make_dbcsr_index           16638 16.6    0.006    0.007    0.006    0.007
 write_mos_molden                    11  8.9    0.000    0.007    0.000    0.007
 mp_irecv_zv                      15708 17.0    0.002    0.007    0.002    0.007
 pw_env_create                        1  5.0    0.000    0.007    0.000    0.007
 mp_sum_i                            15  6.7    0.004    0.007    0.004    0.007
 topology_connectivity_pack_14_       1  4.0    0.000    0.007    0.000    0.007
 pw_scale                           119 10.3    0.002    0.007    0.002    0.007
 create_fast_col_vec_access_d      1669 16.0    0.003    0.003    0.006    0.006
 atom2d_build                        11  7.9    0.000    0.006    0.000    0.006
 topology_connectivity_pack_14        1  4.0    0.000    0.006    0.000    0.006
 kpoint_initialize                    1  2.0    0.000    0.006    0.000    0.006
 qs_scf_post_charges                 11  6.9    0.000    0.006    0.000    0.006
 dbcsr_sort_data                   1281 15.5    0.002    0.006    0.002    0.006
 dbcsr_get_local_rows              4145 14.1    0.006    0.006    0.006    0.006
 mpools_rebuild_fm_pools              1  4.0    0.001    0.004    0.004    0.006
 dbcsr_scale_anytype               2109 14.8    0.002    0.005    0.002    0.006
 mp_comm_free                       529 12.9    0.004    0.006    0.004    0.006
 dbcsr_scale_d                      228 13.5    0.001    0.004    0.002    0.006
 scf_c_write_parameters               1  3.0    0.000    0.006    0.000    0.006
 write_s_matrix_csr                  11  8.9    0.000    0.006    0.000    0.006
 mp_environ_c                      1205 15.6    0.002    0.006    0.002    0.006
 dbcsr_reserve_all_blocks           652 14.1    0.001    0.001    0.004    0.005
 pw_grid_remap                        4  8.0    0.000    0.000    0.004    0.005
 build_neighbor_lists_sab_orb        11  7.9    0.002    0.005    0.002    0.005
 update_motion_NPT                    1  7.0    0.000    0.005    0.000    0.005
 mp_sum_im3                           4  9.0    0.004    0.005    0.004    0.005
 section_velocity_val_set             1  7.0    0.000    0.005    0.000    0.005
 cp_fm_init_random                    1  8.0    0.002    0.003    0.003    0.005
 dbcsr_scale_by_vector_anytype      208 11.2    0.001    0.004    0.002    0.005
 build_neighbor_lists_sap_ppnl       11  7.9    0.005    0.005    0.005    0.005
 read_binary_coordinates              1  3.0    0.000    0.005    0.000    0.005
 dbcsr_get_data_size_used          5540 14.8    0.004    0.005    0.004    0.005
 mp_alltoall_i                        3 15.0    0.003    0.005    0.003    0.005
 write_structure_data                12  4.8    0.000    0.005    0.000    0.005
 pw_grid_sort                         4  8.0    0.001    0.002    0.003    0.004
 compute_averages                    10  5.0    0.001    0.004    0.001    0.004
 write_symmetry                       1  3.0    0.000    0.004    0.000    0.004
 add_external_potential              11  3.9    0.000    0.004    0.000    0.004
 mp_min_lv                            4  8.0    0.004    0.004    0.004    0.004
 mp_comm_compare                    717 15.9    0.003    0.004    0.003    0.004
 transpose_index_local              954 14.3    0.002    0.003    0.002    0.004
 fill_hash_tables                  2286 16.5    0.003    0.004    0.003    0.004
 remove_restart_info                  1  2.0    0.000    0.004    0.000    0.004
 temperature_control                 10  3.0    0.000    0.004    0.000    0.004
 qs_scf_post_elf                     11  6.9    0.000    0.004    0.000    0.004
 mp_cart_rank                      1147 15.0    0.001    0.004    0.001    0.004
 release_fast_vec_access           3338 15.0    0.001    0.004    0.001    0.004
 ot_scf_read_input                   11  7.9    0.000    0.000    0.001    0.004
 fix_atom_control                    11  3.9    0.001    0.004    0.001    0.004
 dbcsr_mempool_clear                458 13.4    0.001    0.002    0.003    0.004
 ot_readwrite_input                  11  8.9    0.001    0.003    0.001    0.003
 comvel_control                      10  3.0    0.000    0.003    0.000    0.003
 pw_poisson_set                       1  6.0    0.000    0.003    0.000    0.003
 metadyn_read                         1  2.0    0.000    0.003    0.000    0.003
 dbcsr_mm_sched_init               2286 16.5    0.002    0.003    0.003    0.003
 pw_poisson_rebuild                 119 11.3    0.000    0.003    0.000    0.003
 sort_shells                          4  9.0    0.002    0.003    0.002    0.003
 copy_dbcsr_to_fm_bc                153 12.3    0.003    0.003    0.003    0.003
 calculate_ecore_efield              22  5.9    0.000    0.003    0.000    0.003
 scf_env_cleanup                     11  5.9    0.000    0.003    0.000    0.003
 mp_max_r                             1  3.0    0.002    0.003    0.002    0.003
 mp_dims_create                       4  9.0    0.001    0.003    0.001    0.003
 mp_rank_compare                    714 16.0    0.002    0.003    0.002    0.003
 mp_cart_coords                    1344 11.6    0.001    0.003    0.001    0.003
 scf_c_read_parameters                1  3.0    0.000    0.003    0.000    0.003
 cleanup_scf_loop                    11  7.9    0.000    0.000    0.002    0.003
 create_local_fixd_list              11  4.9    0.001    0.003    0.001    0.003
 build_neighbor_lists_sab_all        11  7.9    0.002    0.003    0.002    0.003
 pw_pool_create_pw                 2416 11.8    0.002    0.002    0.002    0.003
 dbcsr_hadamard_product              98 13.0    0.001    0.001    0.002    0.003
 dbcsr_add_on_diag                  138 12.7    0.000    0.001    0.002    0.003
 cp_fm_set_all                        1  8.0    0.000    0.002    0.000    0.002
 create_destination_list             22 11.9    0.002    0.002    0.002    0.002
 write_mo_set_to_restart            108  7.5    0.001    0.002    0.001    0.002
 pw_grid_assign                       4  8.0    0.000    0.001    0.002    0.002
 pw_pool_give_back_pw              2867 12.0    0.002    0.002    0.002    0.002
 mp_environ_l                      1959 15.1    0.001    0.002    0.001    0.002
 mp_max_lv                            4  8.0    0.002    0.002    0.002    0.002
 cp_fm_release                      330 11.5    0.001    0.002    0.001    0.002
 mp_sum_im                           55  8.9    0.001    0.002    0.001    0.002
 mp_min_rv                            1  3.0    0.001    0.002    0.001    0.002
 make_full_kinetic                   11  9.9    0.000    0.000    0.002    0.002
 create_replicated_col_vec_from     119 13.4    0.000    0.000    0.002    0.002
 build_neighbor_lists_sab_core       11  7.9    0.002    0.002    0.002    0.002
 dbcsr_get_global_col_map          2286 13.5    0.002    0.002    0.002    0.002
 qs_scf_print_scf_summary            11  7.9    0.000    0.002    0.000    0.002
 dbcsr_mm_sched_finalize           2286 16.5    0.001    0.002    0.001    0.002
 init_cube_info                       4  6.0    0.001    0.002    0.001    0.002
 mp_sum_r                             1  3.0    0.001    0.002    0.001    0.002
 create_replicated_row_vec_from     119 13.4    0.000    0.000    0.001    0.001
 write_qs_control                     1  3.0    0.001    0.001    0.001    0.001
 qs_efield_local_operator           119 10.3    0.000    0.001    0.000    0.001
 mp_sum_rv                            1  3.0    0.001    0.001    0.001    0.001
 qs_efield_berry_phase              119 10.3    0.000    0.001    0.000    0.001
 set_mo_occupation_1                120  9.4    0.000    0.001    0.000    0.001
 dbcsr_mm_hostdrv_init             2286 17.5    0.001    0.001    0.001    0.001
 dump_info_core_hamiltonian          22  6.9    0.000    0.001    0.000    0.001
 dbcsr_verify_matrix                 22  9.9    0.000    0.000    0.000    0.000
 pw_create                          382 12.9    0.000    0.000    0.000    0.000
 setup_velocities                     1  3.0    0.000    0.000    0.000    0.000
 initialize_velocities                1  4.0    0.000    0.000    0.000    0.000
 mp_sum_lm3                           1  3.0    0.000    0.000    0.000    0.000
 qs_ks_did_change                   130  7.7    0.000    0.000    0.000    0.000
 mp_max_rv                            1  3.0    0.000    0.000    0.000    0.000
 cp_fm_scale_and_add                 24  9.0    0.000    0.000    0.000    0.000
 mp_max_d                             1  1.0    0.000    0.000    0.000    0.000
 qs_energies_properties              11  5.9    0.000    0.000    0.000    0.000
 dbcsr_filter_anytype               163  9.7    0.000    0.000    0.000    0.000
 scf_env_release                      3  4.0    0.000    0.000    0.000    0.000
 rs_grid_create                      26  9.3    0.000    0.000    0.000    0.000
 calculate_ecore_self                22  5.9    0.000    0.000    0.000    0.000
 transport_current                   11  9.9    0.000    0.000    0.000    0.000
 write_dm_binary_restart             11  8.9    0.000    0.000    0.000    0.000
 resp_fit                            11  7.9    0.000    0.000    0.000    0.000
 cp_ddapc_init                       11  7.9    0.000    0.000    0.000    0.000
 qs_scf_post_xray                    11  6.9    0.000    0.000    0.000    0.000
 qs_scf_post_epr                     11  6.9    0.000    0.000    0.000    0.000
 linres_calculation_low              11  6.9    0.000    0.000    0.000    0.000
 qs_scf_post_efg                     11  6.9    0.000    0.000    0.000    0.000
 qs_scf_post_molopt                  11  6.9    0.000    0.000    0.000    0.000
 cp_fm_scale                         10  9.0    0.000    0.000    0.000    0.000
 destroy_preconditioner               1  3.0    0.000    0.000    0.000    0.000
 topology_coordinate_pack_11          1  4.0    0.000    0.000    0.000    0.000
 -------------------------------------------------------------------------------

 The number of warnings for this run is : 2
 
 -------------------------------------------------------------------------------
  **** **** ******  **  PROGRAM ENDED AT                 2020-08-07 15:53:35.412
 ***** ** ***  *** **   PROGRAM RAN ON                                      f343
 **    ****   ******    PROGRAM RAN BY                                    ongari
 ***** **    ** ** **   PROGRAM PROCESS ID                                 24823
  **** **  *******  **  PROGRAM STOPPED IN /scratch/ongari/lsmo_benchmark/cp2k/0
                                           7_fidis_cp2k-5.1_intel-mpi/ncores_192
