 DBCSR| Multiplication driver                                                SMM
 DBCSR| Multrec recursion limit                                              512
 DBCSR| Multiplication stack size                                           1000
 DBCSR| Multiplication size stacks                                             3
 DBCSR| Use subcommunicators                                                   T
 DBCSR| Use MPI combined types                                                 F
 DBCSR| Use MPI memory allocation                                              T
 DBCSR| Use Communication thread                                               T
 DBCSR| Communication thread load                                             87


  **** **** ******  **  PROGRAM STARTED AT               2017-10-20 13:59:19.623
 ***** ** ***  *** **   PROGRAM STARTED ON                                  b013
 **    ****   ******    PROGRAM STARTED BY                                ongari
 ***** **    ** ** **   PROGRAM PROCESS ID                                  7098
  **** **  *******  **  PROGRAM STARTED IN /scratch/ongari/1_benchmark_official/
                                           cp2k/01_bellatrix_cp2k-2.6_deprecated
                                           -intel/ncores_512

 CP2K| version string:                                          CP2K version 2.6
 CP2K| source code revision number:                                    svn:14880
 CP2K| is freely available from                             http://www.cp2k.org/
 CP2K| Program compiled at                          Thu Feb  5 13:27:59 CET 2015
 CP2K| Program compiled on                                             bellatrix
 CP2K| Program compiled for                                   Linux-x86-64-intel
 CP2K| Input file name                                                H2O-64.inp
 
 GLOBAL| Force Environment number                                              1
 GLOBAL| Basis set file name                                      GTH_BASIS_SETS
 GLOBAL| Geminal file name                                         BASIS_GEMINAL
 GLOBAL| Potential file name                                           POTENTIAL
 GLOBAL| MM Potential file name                                     MM_POTENTIAL
 GLOBAL| Coordinate file name                                      __STD_INPUT__
 GLOBAL| Method name                                                        CP2K
 GLOBAL| Project name                                                     H2O-64
 GLOBAL| Preferred FFT library                                             FFTW3
 GLOBAL| Preferred diagonalization lib.                                       SL
 GLOBAL| Run type                                                             MD
 GLOBAL| All-to-all communication in single precision                          F
 GLOBAL| FFTs using library dependent lengths                                  F
 GLOBAL| Global print level                                                  LOW
 GLOBAL| Total number of message passing processes                           512
 GLOBAL| Number of threads for this process                                    1
 GLOBAL| This output is from process                                           0

 MEMORY| system memory details [Kb]
 MEMORY|                        rank 0           min           max       average
 MEMORY| MemTotal             32783780      32783780      32783780      32783780
 MEMORY| MemFree              29987924      29102444      30082508      29904166
 MEMORY| Buffers                 45700         10044        295388         55669
 MEMORY| Cached                 172944        152640        727364        248214
 MEMORY| Slab                   112724        100688        180204        112679
 MEMORY| SReclaimable            27304         21520         96812         32985
 MEMORY| MemLikelyFree        30233872      30194028      30280816      30241035

 
 GENERATE|  Preliminary Number of Bonds generated:                             0
 GENERATE|  Achieved consistency in connectivity generation.

 *******************************************************************************
 *******************************************************************************
 **                                                                           **
 **     #####                         ##              ##                      **
 **    ##   ##            ##          ##              ##                      **
 **   ##     ##                       ##            ######                    **
 **   ##     ##  ##   ##  ##   #####  ##  ##   ####   ##    #####    #####    **
 **   ##     ##  ##   ##  ##  ##      ## ##   ##      ##   ##   ##  ##   ##   **
 **   ##  ## ##  ##   ##  ##  ##      ####     ###    ##   ######   ######    **
 **    ##  ###   ##   ##  ##  ##      ## ##      ##   ##   ##       ##        **
 **     #######   #####   ##   #####  ##  ##  ####    ##    #####   ##        **
 **           ##                                                    ##        **
 **                                                                           **
 **                                                ... make the atoms dance   **
 **                                                                           **
 **            Copyright (C) by CP2K Developers Group (2000 - 2014)           **
 **                                                                           **
 *******************************************************************************


 SCF PARAMETERS         Density guess:                                    ATOMIC
                        --------------------------------------------------------
                        max_scf:                                              50
                        max_scf_history:                                       0
                        max_diis:                                              4
                        --------------------------------------------------------
                        eps_scf:                                        1.00E-05
                        eps_scf_history:                                0.00E+00
                        eps_diis:                                       1.00E-01
                        eps_eigval:                                     1.00E-05
                        --------------------------------------------------------
                        level_shift [a.u.]:                                 0.00
                        --------------------------------------------------------
                        No outer SCF
 
 MD| Molecular Dynamics Protocol 
 MD| Ensemble Type                                                           NVE
 MD| Number of Time Steps                                                     10
 MD| Time Step [fs]                                                         0.50
 MD| Temperature [K]                                                      300.00
 MD| Temperature tolerance [K]                                              0.00
 MD| Print MD information every                                        1 step(s)
 MD| File type     Print frequency[steps]                             File names
 MD| Coordinates            1                                   H2O-64-pos-1.xyz
 MD| Velocities             1                                   H2O-64-vel-1.xyz
 MD| Energies               1                                      H2O-64-1.ener
 MD| Dump                  20                                   H2O-64-1.restart
 
 ROT| Rotational Analysis Info 
 ROT| Principal axes and moments of inertia in atomic units:
 ROT|                                1                 2                 3
 ROT| EIGENVALUES            0.174175353E+09   0.187507692E+09   0.199545123E+09
 ROT|      X                    -0.734964520       0.242599134       0.633224142
 ROT|      Y                    -0.044883650       0.914361712      -0.402402930
 ROT|      Z                    -0.676618513      -0.324173287      -0.661134682
 ROT| Numer of Rotovibrational vectors:     6

 Calculation of degrees of freedom
                                                      Number of atoms:       192
                                 Number of Intramolecular constraints:         0
                                 Number of Intermolecular constraints:         0
                                  Invariants(translation + rotations):         3
                                                   Degrees of freedom:       573


 Restraints Information
                                  Number of Intramolecular restraints:         0
                                  Number of Intermolecular restraints:         0
 ************************** Velocities initialization **************************
 Initial Temperature                                                    300.00 K
 COM velocity:           -0.000000000000     -0.000000000000     -0.000000000000
 *******************************************************************************


 Number of electrons:                                                        512
 Number of occupied orbitals:                                                256
 Number of molecular orbitals:                                               256

 Number of orbital functions:                                               2560
 Number of independent orbital functions:                                   2560

 Extrapolation method: initial_guess


 SCF WAVEFUNCTION OPTIMIZATION

  ----------------------------------- OT ---------------------------------------

  Allowing for rotations:  F
  Optimizing orbital energies:  F
  Minimizer      : DIIS                : direct inversion
                                         in the iterative subspace
                            using      : -   7 DIIS vectors
                                         - safer DIIS on
  Preconditioner : FULL_KINETIC        : inversion of T + eS
  Precond_solver : DEFAULT
  stepsize       :    0.15000000
  energy_gap     :    0.20000000

  eps_taylor     :   0.10000E-15
  max_taylor     :             4

  mixed_precision    : F

  ----------------------------------- OT ---------------------------------------

  Step     Update method      Time    Convergence         Total energy    Change
  ------------------------------------------------------------------------------
     1 OT DIIS     0.15E+00    0.8     0.01332027     -1059.3825079557 -1.06E+03
     2 OT DIIS     0.15E+00    0.5     0.00868183     -1073.0837973670 -1.37E+01
     3 OT DIIS     0.15E+00    2.2     0.00608177     -1082.3329449393 -9.25E+00
     4 OT DIIS     0.15E+00    2.4     0.00420419     -1088.9991944739 -6.67E+00
     5 OT DIIS     0.15E+00    0.6     0.00319228     -1092.5975694249 -3.60E+00
     6 OT DIIS     0.15E+00    0.7     0.00242089     -1095.2728736089 -2.68E+00
     7 OT DIIS     0.15E+00    0.5     0.00180823     -1097.1827110187 -1.91E+00
     8 OT DIIS     0.15E+00    0.5     0.00136563     -1098.4047633188 -1.22E+00
     9 OT DIIS     0.15E+00    0.5     0.00107154     -1099.0957253930 -6.91E-01
    10 OT DIIS     0.15E+00    0.5     0.00085958     -1099.5568478897 -4.61E-01
    11 OT DIIS     0.15E+00    0.5     0.00070902     -1099.8674344588 -3.11E-01
    12 OT DIIS     0.15E+00    0.5     0.00059349     -1100.0778291172 -2.10E-01
    13 OT DIIS     0.15E+00    0.5     0.00050949     -1100.2324062136 -1.55E-01
    14 OT DIIS     0.15E+00    0.5     0.00044833     -1100.3361495732 -1.04E-01
    15 OT DIIS     0.15E+00    0.5     0.00039690     -1100.4341573205 -9.80E-02
    16 OT DIIS     0.15E+00    0.5     0.00035862     -1100.5038829257 -6.97E-02
    17 OT DIIS     0.15E+00    0.5     0.00034534     -1100.5572959989 -5.34E-02
    18 OT DIIS     0.15E+00    0.5     0.00034139     -1100.5793052943 -2.20E-02
    19 OT DIIS     0.15E+00    0.5     0.00033463     -1100.5947747725 -1.55E-02
    20 OT SD       0.15E+00    0.5     0.00033658     -1100.6056260666 -1.09E-02
    21 OT DIIS     0.15E+00    0.5     0.00033500     -1100.6167319763 -1.11E-02
    22 OT DIIS     0.15E+00    0.5     0.00032752     -1100.6181772877 -1.45E-03
    23 OT DIIS     0.15E+00    0.5     0.00032184     -1100.6243788064 -6.20E-03
    24 OT DIIS     0.15E+00    0.5     0.00030944     -1100.6371111613 -1.27E-02
    25 OT SD       0.15E+00    0.5     0.00030022     -1100.6455945048 -8.48E-03
    26 OT DIIS     0.15E+00    0.5     0.00029911     -1100.6544335251 -8.84E-03
    27 OT DIIS     0.15E+00    0.5     0.00028894     -1100.6591662825 -4.73E-03
    28 OT SD       0.15E+00    0.5     0.00028473     -1100.6665469323 -7.38E-03
    29 OT SD       0.15E+00    0.5     0.00028442     -1100.6745080801 -7.96E-03
    30 OT SD       0.15E+00    0.6     0.00028480     -1100.6824637366 -7.96E-03
    31 OT SD       0.15E+00    0.6     0.00028544     -1100.6904451527 -7.98E-03
    32 OT DIIS     0.15E+00    0.5     0.00028617     -1100.6984643086 -8.02E-03
    33 OT SD       0.15E+00    0.5     0.00033212     -1100.7435639636 -4.51E-02
    34 OT SD       0.15E+00    0.5     0.00031463     -1100.7540641968 -1.05E-02
    35 OT SD       0.15E+00    0.5     0.00030588     -1100.7636402127 -9.58E-03
    36 OT SD       0.15E+00    0.5     0.00030057     -1100.7727489685 -9.11E-03
    37 OT SD       0.15E+00    0.5     0.00029679     -1100.7815697671 -8.82E-03
    38 OT SD       0.15E+00    0.5     0.00029367     -1100.7901809978 -8.61E-03
    39 OT DIIS     0.15E+00    0.5     0.00029082     -1100.7986166934 -8.44E-03
    40 OT SD       0.15E+00    0.5     0.00016832     -1100.9875398766 -1.89E-01
    41 OT DIIS     0.15E+00    0.5     0.00014749     -1100.9901042388 -2.56E-03
    42 OT DIIS     0.15E+00    0.5     0.00023359     -1100.9860270232  4.08E-03
    43 OT DIIS     0.15E+00    0.5     0.00017591     -1100.9988969368 -1.29E-02
    44 OT DIIS     0.15E+00    0.5     0.00022226     -1101.0010831347 -2.19E-03
    45 OT DIIS     0.15E+00    0.5     0.00015342     -1101.0160500109 -1.50E-02
    46 OT DIIS     0.15E+00    0.5     0.00005874     -1101.0255699554 -9.52E-03
    47 OT DIIS     0.15E+00    0.5     0.00007360     -1101.0255460654  2.39E-05
    48 OT DIIS     0.15E+00    0.5     0.00005773     -1101.0267774770 -1.23E-03
    49 OT DIIS     0.15E+00    0.6     0.00005383     -1101.0275719805 -7.95E-04
    50 OT DIIS     0.15E+00    0.5     0.00004287     -1101.0287889096 -1.22E-03

  *** SCF run NOT converged ***


  Electronic density on regular grids:       -512.0000015472       -0.0000015472
  Core density on regular grids:              512.0000000045        0.0000000045
  Total charge density on r-space grids:       -0.0000015427
  Total charge density g-space grids:          -0.0000015427

  Overlap energy of the core charge distribution:               0.00000562599749
  Self energy of the core charge distribution:              -2805.30499493854904
  Core Hamiltonian energy:                                    825.29378519515444
  Hartree energy:                                            1145.26167274384761
  Exchange-correlation energy:                               -266.27925753600653

  Total energy:                                             -1101.02878890955617

 ENERGY| Total FORCE_EVAL ( QS ) energy (a.u.):            -1101.031006970593580

 
 MD_ENERGIES| Initialization proceeding
 

 ******************************** GO CP2K GO! **********************************
 INITIAL POTENTIAL ENERGY[hartree]     =                     -0.110103100697E+04
 INITIAL KINETIC ENERGY[hartree]       =                      0.272187778755E+00
 INITIAL TEMPERATURE[K]                =                                 300.000
 INITIAL VOLUME[bohr^3]                =                      0.129095421321E+05
 INITIAL CELL LNTHS[bohr]   =      0.2345868E+02   0.2345868E+02   0.2345868E+02
 INITIAL CELL ANGLS[deg]    =      0.9000000E+02   0.9000000E+02   0.9000000E+02
 ******************************** GO CP2K GO! **********************************

 Number of electrons:                                                        512
 Number of occupied orbitals:                                                256
 Number of molecular orbitals:                                               256

 Number of orbital functions:                                               2560
 Number of independent orbital functions:                                   2560

 Extrapolation method: PS Nth order


 SCF WAVEFUNCTION OPTIMIZATION

  ----------------------------------- OT ---------------------------------------

  Allowing for rotations:  F
  Optimizing orbital energies:  F
  Minimizer      : DIIS                : direct inversion
                                         in the iterative subspace
                            using      : -   7 DIIS vectors
                                         - safer DIIS on
  Preconditioner : FULL_KINETIC        : inversion of T + eS
  Precond_solver : DEFAULT
  stepsize       :    0.15000000
  energy_gap     :    0.20000000

  eps_taylor     :   0.10000E-15
  max_taylor     :             4

  mixed_precision    : F

  ----------------------------------- OT ---------------------------------------

  Step     Update method      Time    Convergence         Total energy    Change
  ------------------------------------------------------------------------------
     1 OT DIIS     0.15E+00    0.6     0.00024949     -1101.0278031974 -1.10E+03
     2 OT DIIS     0.15E+00    0.4     0.00016075     -1101.0327091508 -4.91E-03
     3 OT DIIS     0.15E+00    0.4     0.00009050     -1101.0362863174 -3.58E-03
     4 OT DIIS     0.15E+00    0.4     0.00006199     -1101.0377277257 -1.44E-03
     5 OT DIIS     0.15E+00    0.4     0.00003797     -1101.0386877894 -9.60E-04
     6 OT DIIS     0.15E+00    0.4     0.00002205     -1101.0391017620 -4.14E-04
     7 OT DIIS     0.15E+00    0.4     0.00001260     -1101.0392355452 -1.34E-04
     8 OT DIIS     0.15E+00    0.4     0.00000723     -1101.0392767828 -4.12E-05

  *** SCF run converged in     8 steps ***


  Electronic density on regular grids:       -512.0000014916       -0.0000014916
  Core density on regular grids:              511.9999999975       -0.0000000025
  Total charge density on r-space grids:       -0.0000014941
  Total charge density g-space grids:          -0.0000014941

  Overlap energy of the core charge distribution:               0.00000554074590
  Self energy of the core charge distribution:              -2805.30499493854904
  Core Hamiltonian energy:                                    824.99709670270204
  Hartree energy:                                            1145.47089243836831
  Exchange-correlation energy:                               -266.20227652607059

  Total energy:                                             -1101.03927678280343

 ENERGY| Total FORCE_EVAL ( QS ) energy (a.u.):            -1101.039289564183036


 *******************************************************************************
 ENSEMBLE TYPE                =                                              NVE
 STEP NUMBER                  =                                                1
 TIME [fs]                    =                                         0.500000
 CONSERVED QUANTITY [hartree] =                              -0.110076554067E+04

                                              INSTANTANEOUS             AVERAGES
 CPU TIME [s]                 =                       34.19                34.19
 ENERGY DRIFT PER ATOM [K]    =         -0.110545481122E+02   0.000000000000E+00
 POTENTIAL ENERGY[hartree]    =         -0.110103928956E+04  -0.110103928956E+04
 KINETIC ENERGY [hartree]     =          0.273748891531E+00   0.273748891531E+00
 TEMPERATURE [K]              =                     301.721              301.721
 *******************************************************************************


 Number of electrons:                                                        512
 Number of occupied orbitals:                                                256
 Number of molecular orbitals:                                               256

 Number of orbital functions:                                               2560
 Number of independent orbital functions:                                   2560

 Extrapolation method: PS Nth order


 SCF WAVEFUNCTION OPTIMIZATION

  ----------------------------------- OT ---------------------------------------

  Allowing for rotations:  F
  Optimizing orbital energies:  F
  Minimizer      : DIIS                : direct inversion
                                         in the iterative subspace
                            using      : -   7 DIIS vectors
                                         - safer DIIS on
  Preconditioner : FULL_KINETIC        : inversion of T + eS
  Precond_solver : DEFAULT
  stepsize       :    0.15000000
  energy_gap     :    0.20000000

  eps_taylor     :   0.10000E-15
  max_taylor     :             4

  mixed_precision    : F

  ----------------------------------- OT ---------------------------------------

  Step     Update method      Time    Convergence         Total energy    Change
  ------------------------------------------------------------------------------
     1 OT DIIS     0.15E+00    0.5     0.00018187     -1101.0453213800 -1.10E+03
     2 OT DIIS     0.15E+00    0.4     0.00012503     -1101.0480054178 -2.68E-03
     3 OT DIIS     0.15E+00    0.4     0.00007517     -1101.0503828139 -2.38E-03
     4 OT DIIS     0.15E+00    0.4     0.00005150     -1101.0514777102 -1.09E-03
     5 OT DIIS     0.15E+00    0.4     0.00002882     -1101.0522243705 -7.47E-04
     6 OT DIIS     0.15E+00    0.4     0.00001712     -1101.0524515285 -2.27E-04
     7 OT DIIS     0.15E+00    0.4     0.00000972     -1101.0525297374 -7.82E-05

  *** SCF run converged in     7 steps ***


  Electronic density on regular grids:       -512.0000014203       -0.0000014203
  Core density on regular grids:              511.9999999954       -0.0000000046
  Total charge density on r-space grids:       -0.0000014249
  Total charge density g-space grids:          -0.0000014249

  Overlap energy of the core charge distribution:               0.00000508717620
  Self energy of the core charge distribution:              -2805.30499493854904
  Core Hamiltonian energy:                                    823.99099496088752
  Hartree energy:                                            1146.19319013929953
  Exchange-correlation energy:                               -265.93172498622494

  Total energy:                                             -1101.05252973741062

 ENERGY| Total FORCE_EVAL ( QS ) energy (a.u.):            -1101.052553906068852


 *******************************************************************************
 ENSEMBLE TYPE                =                                              NVE
 STEP NUMBER                  =                                                2
 TIME [fs]                    =                                         1.000000
 CONSERVED QUANTITY [hartree] =                              -0.110076574941E+04

                                              INSTANTANEOUS             AVERAGES
 CPU TIME [s]                 =                        3.53                18.86
 ENERGY DRIFT PER ATOM [K]    =         -0.113978552680E+02  -0.569892763400E+01
 POTENTIAL ENERGY[hartree]    =         -0.110105255391E+04  -0.110104592174E+04
 KINETIC ENERGY [hartree]     =          0.286804492866E+00   0.280276692198E+00
 TEMPERATURE [K]              =                     316.110              308.915
 *******************************************************************************


 Number of electrons:                                                        512
 Number of occupied orbitals:                                                256
 Number of molecular orbitals:                                               256

 Number of orbital functions:                                               2560
 Number of independent orbital functions:                                   2560

 Extrapolation method: PS Nth order


 SCF WAVEFUNCTION OPTIMIZATION

  ----------------------------------- OT ---------------------------------------

  Allowing for rotations:  F
  Optimizing orbital energies:  F
  Minimizer      : DIIS                : direct inversion
                                         in the iterative subspace
                            using      : -   7 DIIS vectors
                                         - safer DIIS on
  Preconditioner : FULL_KINETIC        : inversion of T + eS
  Precond_solver : DEFAULT
  stepsize       :    0.15000000
  energy_gap     :    0.20000000

  eps_taylor     :   0.10000E-15
  max_taylor     :             4

  mixed_precision    : F

  ----------------------------------- OT ---------------------------------------

  Step     Update method      Time    Convergence         Total energy    Change
  ------------------------------------------------------------------------------
     1 OT DIIS     0.15E+00    0.5     0.00016599     -1101.0673401754 -1.10E+03
     2 OT DIIS     0.15E+00    0.4     0.00011755     -1101.0696106440 -2.27E-03
     3 OT DIIS     0.15E+00    0.4     0.00007010     -1101.0718403922 -2.23E-03
     4 OT DIIS     0.15E+00    0.4     0.00004686     -1101.0728159784 -9.76E-04
     5 OT DIIS     0.15E+00    0.4     0.00002506     -1101.0734352743 -6.19E-04
     6 OT DIIS     0.15E+00    0.4     0.00001526     -1101.0735929642 -1.58E-04
     7 OT DIIS     0.15E+00    0.4     0.00000857     -1101.0736544804 -6.15E-05

  *** SCF run converged in     7 steps ***


  Electronic density on regular grids:       -512.0000013340       -0.0000013340
  Core density on regular grids:              511.9999999979       -0.0000000021
  Total charge density on r-space grids:       -0.0000013361
  Total charge density g-space grids:          -0.0000013361

  Overlap energy of the core charge distribution:               0.00000421676059
  Self energy of the core charge distribution:              -2805.30499493854904
  Core Hamiltonian energy:                                    822.43891721795376
  Hartree energy:                                            1147.30180930878532
  Exchange-correlation energy:                               -265.50939028538869

  Total energy:                                             -1101.07365448043788

 ENERGY| Total FORCE_EVAL ( QS ) energy (a.u.):            -1101.073673404453984


 *******************************************************************************
 ENSEMBLE TYPE                =                                              NVE
 STEP NUMBER                  =                                                3
 TIME [fs]                    =                                         1.500000
 CONSERVED QUANTITY [hartree] =                              -0.110076623801E+04

                                              INSTANTANEOUS             AVERAGES
 CPU TIME [s]                 =                        3.55                13.75
 ENERGY DRIFT PER ATOM [K]    =         -0.122014238230E+02  -0.786642636368E+01
 POTENTIAL ENERGY[hartree]    =         -0.110107367340E+04  -0.110105517229E+04
 KINETIC ENERGY [hartree]     =          0.307435398631E+00   0.289329594342E+00
 TEMPERATURE [K]              =                     338.849              318.893
 *******************************************************************************


 Number of electrons:                                                        512
 Number of occupied orbitals:                                                256
 Number of molecular orbitals:                                               256

 Number of orbital functions:                                               2560
 Number of independent orbital functions:                                   2560

 Extrapolation method: PS Nth order


 SCF WAVEFUNCTION OPTIMIZATION

  ----------------------------------- OT ---------------------------------------

  Allowing for rotations:  F
  Optimizing orbital energies:  F
  Minimizer      : DIIS                : direct inversion
                                         in the iterative subspace
                            using      : -   7 DIIS vectors
                                         - safer DIIS on
  Preconditioner : FULL_KINETIC        : inversion of T + eS
  Precond_solver : DEFAULT
  stepsize       :    0.15000000
  energy_gap     :    0.20000000

  eps_taylor     :   0.10000E-15
  max_taylor     :             4

  mixed_precision    : F

  ----------------------------------- OT ---------------------------------------

  Step     Update method      Time    Convergence         Total energy    Change
  ------------------------------------------------------------------------------
     1 OT DIIS     0.15E+00    0.5     0.00016900     -1101.0882815679 -1.10E+03
     2 OT DIIS     0.15E+00    0.4     0.00012004     -1101.0906392051 -2.36E-03
     3 OT DIIS     0.15E+00    0.4     0.00006991     -1101.0929761641 -2.34E-03
     4 OT DIIS     0.15E+00    0.4     0.00004370     -1101.0939498182 -9.74E-04
     5 OT DIIS     0.15E+00    0.4     0.00002172     -1101.0944515374 -5.02E-04
     6 OT DIIS     0.15E+00    0.4     0.00001364     -1101.0945537971 -1.02E-04
     7 OT DIIS     0.15E+00    0.4     0.00000750     -1101.0946004838 -4.67E-05

  *** SCF run converged in     7 steps ***


  Electronic density on regular grids:       -512.0000012183       -0.0000012183
  Core density on regular grids:              512.0000000002        0.0000000002
  Total charge density on r-space grids:       -0.0000012181
  Total charge density g-space grids:          -0.0000012181

  Overlap energy of the core charge distribution:               0.00000308048338
  Self energy of the core charge distribution:              -2805.30499493854904
  Core Hamiltonian energy:                                    820.48664268818288
  Hartree energy:                                            1148.70443612341933
  Exchange-correlation energy:                               -264.98068743736360

  Total energy:                                             -1101.09460048382698

 ENERGY| Total FORCE_EVAL ( QS ) energy (a.u.):            -1101.094614859944613


 *******************************************************************************
 ENSEMBLE TYPE                =                                              NVE
 STEP NUMBER                  =                                                4
 TIME [fs]                    =                                         2.000000
 CONSERVED QUANTITY [hartree] =                              -0.110076681835E+04

                                              INSTANTANEOUS             AVERAGES
 CPU TIME [s]                 =                        3.56                11.21
 ENERGY DRIFT PER ATOM [K]    =         -0.131558944532E+02  -0.918879338607E+01
 POTENTIAL ENERGY[hartree]    =         -0.110109461486E+04  -0.110106503293E+04
 KINETIC ENERGY [hartree]     =          0.327796508732E+00   0.298946322940E+00
 TEMPERATURE [K]              =                     361.291              329.493
 *******************************************************************************


 Number of electrons:                                                        512
 Number of occupied orbitals:                                                256
 Number of molecular orbitals:                                               256

 Number of orbital functions:                                               2560
 Number of independent orbital functions:                                   2560

 Extrapolation method: PS Nth order


 SCF WAVEFUNCTION OPTIMIZATION

  ----------------------------------- OT ---------------------------------------

  Allowing for rotations:  F
  Optimizing orbital energies:  F
  Minimizer      : DIIS                : direct inversion
                                         in the iterative subspace
                            using      : -   7 DIIS vectors
                                         - safer DIIS on
  Preconditioner : FULL_KINETIC        : inversion of T + eS
  Precond_solver : DEFAULT
  stepsize       :    0.15000000
  energy_gap     :    0.20000000

  eps_taylor     :   0.10000E-15
  max_taylor     :             4

  mixed_precision    : F

  ----------------------------------- OT ---------------------------------------

  Step     Update method      Time    Convergence         Total energy    Change
  ------------------------------------------------------------------------------
     1 OT DIIS     0.15E+00    0.5     0.00006426     -1101.1044110226 -1.10E+03
     2 OT DIIS     0.15E+00    0.4     0.00005315     -1101.1047787978 -3.68E-04
     3 OT DIIS     0.15E+00    0.4     0.00003232     -1101.1054483798 -6.70E-04
     4 OT DIIS     0.15E+00    0.4     0.00002194     -1101.1057147873 -2.66E-04
     5 OT DIIS     0.15E+00    0.4     0.00001212     -1101.1058730943 -1.58E-04
     6 OT DIIS     0.15E+00    0.4     0.00000783     -1101.1059135972 -4.05E-05

  *** SCF run converged in     6 steps ***


  Electronic density on regular grids:       -512.0000010688       -0.0000010688
  Core density on regular grids:              511.9999999989       -0.0000000011
  Total charge density on r-space grids:       -0.0000010699
  Total charge density g-space grids:          -0.0000010699

  Overlap energy of the core charge distribution:               0.00000200945111
  Self energy of the core charge distribution:              -2805.30499493854904
  Core Hamiltonian energy:                                    818.39013738619542
  Hartree energy:                                            1150.21806252671217
  Exchange-correlation energy:                               -264.40912058100480

  Total energy:                                             -1101.10591359719501

 ENERGY| Total FORCE_EVAL ( QS ) energy (a.u.):            -1101.105932128839413


 *******************************************************************************
 ENSEMBLE TYPE                =                                              NVE
 STEP NUMBER                  =                                                5
 TIME [fs]                    =                                         2.500000
 CONSERVED QUANTITY [hartree] =                              -0.110076715531E+04

                                              INSTANTANEOUS             AVERAGES
 CPU TIME [s]                 =                        3.15                 9.60
 ENERGY DRIFT PER ATOM [K]    =         -0.137100851524E+02  -0.100930517393E+02
 POTENTIAL ENERGY[hartree]    =         -0.110110593213E+04  -0.110107321277E+04
 KINETIC ENERGY [hartree]     =          0.338776813862E+00   0.306912421124E+00
 TEMPERATURE [K]              =                     373.393              338.273
 *******************************************************************************


 Number of electrons:                                                        512
 Number of occupied orbitals:                                                256
 Number of molecular orbitals:                                               256

 Number of orbital functions:                                               2560
 Number of independent orbital functions:                                   2560

 Extrapolation method: PS Nth order


 SCF WAVEFUNCTION OPTIMIZATION

  ----------------------------------- OT ---------------------------------------

  Allowing for rotations:  F
  Optimizing orbital energies:  F
  Minimizer      : DIIS                : direct inversion
                                         in the iterative subspace
                            using      : -   7 DIIS vectors
                                         - safer DIIS on
  Preconditioner : FULL_KINETIC        : inversion of T + eS
  Precond_solver : DEFAULT
  stepsize       :    0.15000000
  energy_gap     :    0.20000000

  eps_taylor     :   0.10000E-15
  max_taylor     :             4

  mixed_precision    : F

  ----------------------------------- OT ---------------------------------------

  Step     Update method      Time    Convergence         Total energy    Change
  ------------------------------------------------------------------------------
     1 OT DIIS     0.15E+00    0.6     0.00004706     -1101.1011339809 -1.10E+03
     2 OT DIIS     0.15E+00    0.4     0.00003814     -1101.1013293805 -1.95E-04
     3 OT DIIS     0.15E+00    0.4     0.00002079     -1101.1016568934 -3.28E-04
     4 OT DIIS     0.15E+00    0.4     0.00001223     -1101.1017643462 -1.07E-04
     5 OT DIIS     0.15E+00    0.4     0.00000730     -1101.1018023382 -3.80E-05

  *** SCF run converged in     5 steps ***


  Electronic density on regular grids:       -512.0000009008       -0.0000009008
  Core density on regular grids:              511.9999999941       -0.0000000059
  Total charge density on r-space grids:       -0.0000009067
  Total charge density g-space grids:          -0.0000009067

  Overlap energy of the core charge distribution:               0.00000123724779
  Self energy of the core charge distribution:              -2805.30499493854904
  Core Hamiltonian energy:                                    816.35636953629535
  Hartree energy:                                            1151.70037308961446
  Exchange-correlation energy:                               -263.85355126278068

  Total energy:                                             -1101.10180233817186

 ENERGY| Total FORCE_EVAL ( QS ) energy (a.u.):            -1101.101815178014931


 *******************************************************************************
 ENSEMBLE TYPE                =                                              NVE
 STEP NUMBER                  =                                                6
 TIME [fs]                    =                                         3.000000
 CONSERVED QUANTITY [hartree] =                              -0.110076702437E+04

                                              INSTANTANEOUS             AVERAGES
 CPU TIME [s]                 =                        2.95                 8.49
 ENERGY DRIFT PER ATOM [K]    =         -0.134947243095E+02  -0.106599971677E+02
 POTENTIAL ENERGY[hartree]    =         -0.110110181518E+04  -0.110107797984E+04
 KINETIC ENERGY [hartree]     =          0.334790808578E+00   0.311558819033E+00
 TEMPERATURE [K]              =                     369.000              343.394
 *******************************************************************************


 Number of electrons:                                                        512
 Number of occupied orbitals:                                                256
 Number of molecular orbitals:                                               256

 Number of orbital functions:                                               2560
 Number of independent orbital functions:                                   2560

 Extrapolation method: PS Nth order


 SCF WAVEFUNCTION OPTIMIZATION

  ----------------------------------- OT ---------------------------------------

  Allowing for rotations:  F
  Optimizing orbital energies:  F
  Minimizer      : DIIS                : direct inversion
                                         in the iterative subspace
                            using      : -   7 DIIS vectors
                                         - safer DIIS on
  Preconditioner : FULL_KINETIC        : inversion of T + eS
  Precond_solver : DEFAULT
  stepsize       :    0.15000000
  energy_gap     :    0.20000000

  eps_taylor     :   0.10000E-15
  max_taylor     :             4

  mixed_precision    : F

  ----------------------------------- OT ---------------------------------------

  Step     Update method      Time    Convergence         Total energy    Change
  ------------------------------------------------------------------------------
     1 OT DIIS     0.15E+00    0.6     0.00004011     -1101.0829342807 -1.10E+03
     2 OT DIIS     0.15E+00    0.6     0.00003295     -1101.0830775654 -1.43E-04
     3 OT DIIS     0.15E+00    0.4     0.00001490     -1101.0833518753 -2.74E-04
     4 OT DIIS     0.15E+00    0.4     0.00000897     -1101.0834071079 -5.52E-05

  *** SCF run converged in     4 steps ***


  Electronic density on regular grids:       -512.0000007415       -0.0000007415
  Core density on regular grids:              511.9999999906       -0.0000000094
  Total charge density on r-space grids:       -0.0000007508
  Total charge density g-space grids:          -0.0000007508

  Overlap energy of the core charge distribution:               0.00000077877949
  Self energy of the core charge distribution:              -2805.30499493854904
  Core Hamiltonian energy:                                    814.58618750351752
  Hartree energy:                                            1153.00177220269006
  Exchange-correlation energy:                               -263.36637265436855

  Total energy:                                             -1101.08340710793073

 ENERGY| Total FORCE_EVAL ( QS ) energy (a.u.):            -1101.083423184784351


 *******************************************************************************
 ENSEMBLE TYPE                =                                              NVE
 STEP NUMBER                  =                                                7
 TIME [fs]                    =                                         3.500000
 CONSERVED QUANTITY [hartree] =                              -0.110076647588E+04

                                              INSTANTANEOUS             AVERAGES
 CPU TIME [s]                 =                        2.65                 7.65
 ENERGY DRIFT PER ATOM [K]    =         -0.125926396161E+02  -0.109360889460E+02
 POTENTIAL ENERGY[hartree]    =         -0.110108342318E+04  -0.110107875746E+04
 KINETIC ENERGY [hartree]     =          0.316947308591E+00   0.312328603256E+00
 TEMPERATURE [K]              =                     349.333              344.242
 *******************************************************************************


 Number of electrons:                                                        512
 Number of occupied orbitals:                                                256
 Number of molecular orbitals:                                               256

 Number of orbital functions:                                               2560
 Number of independent orbital functions:                                   2560

 Extrapolation method: PS Nth order


 SCF WAVEFUNCTION OPTIMIZATION

  ----------------------------------- OT ---------------------------------------

  Allowing for rotations:  F
  Optimizing orbital energies:  F
  Minimizer      : DIIS                : direct inversion
                                         in the iterative subspace
                            using      : -   7 DIIS vectors
                                         - safer DIIS on
  Preconditioner : FULL_KINETIC        : inversion of T + eS
  Precond_solver : DEFAULT
  stepsize       :    0.15000000
  energy_gap     :    0.20000000

  eps_taylor     :   0.10000E-15
  max_taylor     :             4

  mixed_precision    : F

  ----------------------------------- OT ---------------------------------------

  Step     Update method      Time    Convergence         Total energy    Change
  ------------------------------------------------------------------------------
     1 OT DIIS     0.15E+00    0.6     0.00003934     -1101.0575993377 -1.10E+03
     2 OT DIIS     0.15E+00    0.4     0.00003220     -1101.0577372340 -1.38E-04
     3 OT DIIS     0.15E+00    0.4     0.00001302     -1101.0580145435 -2.77E-04
     4 OT DIIS     0.15E+00    0.4     0.00000937     -1101.0580508352 -3.63E-05

  *** SCF run converged in     4 steps ***


  Electronic density on regular grids:       -512.0000006088       -0.0000006088
  Core density on regular grids:              511.9999999927       -0.0000000073
  Total charge density on r-space grids:       -0.0000006162
  Total charge density g-space grids:          -0.0000006162

  Overlap energy of the core charge distribution:               0.00000054143077
  Self energy of the core charge distribution:              -2805.30499493854904
  Core Hamiltonian energy:                                    813.21035139967353
  Hartree energy:                                            1154.02258426746698
  Exchange-correlation energy:                               -262.98599210525549

  Total energy:                                             -1101.05805083523319

 ENERGY| Total FORCE_EVAL ( QS ) energy (a.u.):            -1101.058072647132121


 *******************************************************************************
 ENSEMBLE TYPE                =                                              NVE
 STEP NUMBER                  =                                                8
 TIME [fs]                    =                                         4.000000
 CONSERVED QUANTITY [hartree] =                              -0.110076580471E+04

                                              INSTANTANEOUS             AVERAGES
 CPU TIME [s]                 =                        2.46                 7.00
 ENERGY DRIFT PER ATOM [K]    =         -0.114888012461E+02  -0.110051779836E+02
 POTENTIAL ENERGY[hartree]    =         -0.110105807265E+04  -0.110107617186E+04
 KINETIC ENERGY [hartree]     =          0.292267936178E+00   0.309821019871E+00
 TEMPERATURE [K]              =                     322.132              341.479
 *******************************************************************************


 Number of electrons:                                                        512
 Number of occupied orbitals:                                                256
 Number of molecular orbitals:                                               256

 Number of orbital functions:                                               2560
 Number of independent orbital functions:                                   2560

 Extrapolation method: PS Nth order


 SCF WAVEFUNCTION OPTIMIZATION

  ----------------------------------- OT ---------------------------------------

  Allowing for rotations:  F
  Optimizing orbital energies:  F
  Minimizer      : DIIS                : direct inversion
                                         in the iterative subspace
                            using      : -   7 DIIS vectors
                                         - safer DIIS on
  Preconditioner : FULL_KINETIC        : inversion of T + eS
  Precond_solver : DEFAULT
  stepsize       :    0.15000000
  energy_gap     :    0.20000000

  eps_taylor     :   0.10000E-15
  max_taylor     :             4

  mixed_precision    : F

  ----------------------------------- OT ---------------------------------------

  Step     Update method      Time    Convergence         Total energy    Change
  ------------------------------------------------------------------------------
     1 OT DIIS     0.15E+00    0.6     0.00004063     -1101.0348904322 -1.10E+03
     2 OT DIIS     0.15E+00    0.4     0.00003307     -1101.0350368933 -1.46E-04
     3 OT DIIS     0.15E+00    0.4     0.00001525     -1101.0353096355 -2.73E-04
     4 OT DIIS     0.15E+00    0.4     0.00001093     -1101.0353590213 -4.94E-05
     5 OT DIIS     0.15E+00    0.4     0.00000786     -1101.0353880727 -2.91E-05

  *** SCF run converged in     5 steps ***


  Electronic density on regular grids:       -512.0000004818       -0.0000004818
  Core density on regular grids:              511.9999999968       -0.0000000032
  Total charge density on r-space grids:       -0.0000004851
  Total charge density g-space grids:          -0.0000004851

  Overlap energy of the core charge distribution:               0.00000043858940
  Self energy of the core charge distribution:              -2805.30499493854904
  Core Hamiltonian energy:                                    812.31303125931481
  Hartree energy:                                            1154.69416750548044
  Exchange-correlation energy:                               -262.73759233754583

  Total energy:                                             -1101.03538807271025

 ENERGY| Total FORCE_EVAL ( QS ) energy (a.u.):            -1101.035410333127857


 *******************************************************************************
 ENSEMBLE TYPE                =                                              NVE
 STEP NUMBER                  =                                                9
 TIME [fs]                    =                                         4.500000
 CONSERVED QUANTITY [hartree] =                              -0.110076529419E+04

                                              INSTANTANEOUS             AVERAGES
 CPU TIME [s]                 =                        2.78                 6.54
 ENERGY DRIFT PER ATOM [K]    =         -0.106491652628E+02  -0.109656210146E+02
 POTENTIAL ENERGY[hartree]    =         -0.110103541033E+04  -0.110107164280E+04
 KINETIC ENERGY [hartree]     =          0.270116144820E+00   0.305409367088E+00
 TEMPERATURE [K]              =                     297.717              336.616
 *******************************************************************************


 Number of electrons:                                                        512
 Number of occupied orbitals:                                                256
 Number of molecular orbitals:                                               256

 Number of orbital functions:                                               2560
 Number of independent orbital functions:                                   2560

 Extrapolation method: PS Nth order


 SCF WAVEFUNCTION OPTIMIZATION

  ----------------------------------- OT ---------------------------------------

  Allowing for rotations:  F
  Optimizing orbital energies:  F
  Minimizer      : DIIS                : direct inversion
                                         in the iterative subspace
                            using      : -   7 DIIS vectors
                                         - safer DIIS on
  Preconditioner : FULL_KINETIC        : inversion of T + eS
  Precond_solver : DEFAULT
  stepsize       :    0.15000000
  energy_gap     :    0.20000000

  eps_taylor     :   0.10000E-15
  max_taylor     :             4

  mixed_precision    : F

  ----------------------------------- OT ---------------------------------------

  Step     Update method      Time    Convergence         Total energy    Change
  ------------------------------------------------------------------------------
     1 OT DIIS     0.15E+00    0.6     0.00004272     -1101.0227185822 -1.10E+03
     2 OT DIIS     0.15E+00    0.4     0.00003547     -1101.0228816340 -1.63E-04
     3 OT DIIS     0.15E+00    0.4     0.00001954     -1101.0231905787 -3.09E-04
     4 OT DIIS     0.15E+00    0.4     0.00001351     -1101.0232865832 -9.60E-05
     5 OT DIIS     0.15E+00    0.4     0.00000909     -1101.0233423692 -5.58E-05

  *** SCF run converged in     5 steps ***


  Electronic density on regular grids:       -512.0000003316       -0.0000003316
  Core density on regular grids:              511.9999999981       -0.0000000019
  Total charge density on r-space grids:       -0.0000003335
  Total charge density g-space grids:          -0.0000003335

  Overlap energy of the core charge distribution:               0.00000042270337
  Self energy of the core charge distribution:              -2805.30499493854904
  Core Hamiltonian energy:                                    811.91272339968748
  Hartree energy:                                            1154.99784950275966
  Exchange-correlation energy:                               -262.62892075578839

  Total energy:                                             -1101.02334236918682

 ENERGY| Total FORCE_EVAL ( QS ) energy (a.u.):            -1101.023374986869385


 *******************************************************************************
 ENSEMBLE TYPE                =                                              NVE
 STEP NUMBER                  =                                               10
 TIME [fs]                    =                                         5.000000
 CONSERVED QUANTITY [hartree] =                              -0.110076505584E+04

                                              INSTANTANEOUS             AVERAGES
 CPU TIME [s]                 =                        2.78                 6.16
 ENERGY DRIFT PER ATOM [K]    =         -0.102571584425E+02  -0.108947747574E+02
 POTENTIAL ENERGY[hartree]    =         -0.110102337499E+04  -0.110106681602E+04
 KINETIC ENERGY [hartree]     =          0.258319149898E+00   0.300700345369E+00
 TEMPERATURE [K]              =                     284.714              331.426
 *******************************************************************************


 -------------------------------------------------------------------------------
 -                                                                             -
 -                                DBCSR STATISTICS                             -
 -                                                                             -
 -------------------------------------------------------------------------------
 COUNTER                                      CPU                  ACC      ACC%
 number of processed stacks               8886464                    0       0.0
 matmuls inhomo. stacks                         0                    0       0.0
 matmuls total                          102193976                    0       0.0
 flops   9 x   32 x   32                207618048                    0       0.0
 flops  22 x   32 x   32                253755392                    0       0.0
 flops  32 x   32 x   32              24394072064                    0       0.0
 flops   9 x    9 x   32              44168260608                    0       0.0
 flops  22 x    9 x   32              53835724800                    0       0.0
 flops   9 x   22 x   32              53885500416                    0       0.0
 flops  22 x   22 x   32              67007283200                    0       0.0
 flops  32 x   32 x   80             141264158720                    0       0.0
 flops 160 x   32 x   32             173811957760                    0       0.0
 flops   9 x   32 x    9             185405884416                    0       0.0
 flops  22 x   32 x    9             227871249408                    0       0.0
 flops   9 x   32 x   22             227871249408                    0       0.0
 flops  22 x   32 x   22             279130931200                    0       0.0
 flops 160 x   32 x   80             399297740800                    0       0.0
 flops total                        1878405386240                    0       0.0
 marketing flops                    2105104400384
 -------------------------------------------------------------------------------
 Warning: using a non-square number of MPI ranks might lead to poor performance.
          used ranks: 512
          suggested : 529 1024
 -------------------------------------------------------------------------------

 -------------------------------------------------------------------------------
 -                                                                             -
 -                         MESSAGE PASSING PERFORMANCE                         -
 -                                                                             -
 -------------------------------------------------------------------------------

 ROUTINE             CALLS  TOT TIME [s]  AVE VOLUME [Bytes]  PERFORMANCE [MB/s]
 MP_Group                5         0.000
 MP_Bcast             4259         0.010              44594.            19531.08
 MP_Allreduce         7692         8.654                462.                0.41
 MP_Gather              44         0.509              14336.                1.24
 MP_Sync              1482         1.071
 MP_Alltoall          9847        13.443             247834.              181.53
 MP_ISendRecv       243236         0.269               1280.             1155.91
 MP_Wait            861916        15.399
 MP_comm_split          50         0.054
 MP_ISend           461120         0.899              15453.             7925.38
 MP_IRecv           460018         0.243              15301.            28989.49
 MP_Memory           73114         0.041
 -------------------------------------------------------------------------------


 -------------------------------------------------------------------------------
 -                                                                             -
 -                           R E F E R E N C E S                               -
 -                                                                             -
 -------------------------------------------------------------------------------
 
 CP2K version 2.6, the CP2K developers group (2014).
 CP2K is freely available from http://www.cp2k.org/ .

 Borstnik, U; VandeVondele, J; Weber, V; Hutter, J. 
 PARALLEL COMPUTING, 40 (5-6), 47-58 (2014). 
 Sparse matrix multiplication: The distributed block-compressed sparse
 row library.
 http://dx.doi.org/10.1016/j.parco.2014.03.012


 Hutter, J; Iannuzzi, M; Schiffmann, F; VandeVondele, J. 
 WILEY INTERDISCIPLINARY REVIEWS-COMPUTATIONAL MOLECULAR SCIENCE, 4 (1), 15-25 (2014). 
 CP2K: atomistic simulations of condensed matter systems.
 http://dx.doi.org/10.1002/wcms.1159


 Krack, M. 
 THEORETICAL CHEMISTRY ACCOUNTS, 114 (1-3), 145-152 (2005). 
 Pseudopotentials for H to Kr optimized for gradient-corrected
 exchange-correlation functionals.
 http://dx.doi.org/10.1007/s00214-005-0655-y


 VandeVondele, J; Krack, M; Mohamed, F; Parrinello, M; Chassaing, T;
 Hutter, J. COMPUTER PHYSICS COMMUNICATIONS, 167 (2), 103-128 (2005). 
 QUICKSTEP: Fast and accurate density functional calculations using a
 mixed Gaussian and plane waves approach.
 http://dx.doi.org/10.1016/j.cpc.2004.12.014


 Frigo, M; Johnson, SG. 
 PROCEEDINGS OF THE IEEE, 93 (2), 216-231 (2005). 
 The design and implementation of FFTW3.
 http://dx.doi.org/10.1109/JPROC.2004.840301


 VandeVondele, J; Hutter, J. 
 JOURNAL OF CHEMICAL PHYSICS, 118 (10), 4365-4369 (2003). 
 An efficient orbital transformation method for electronic structure
 calculations.
 http://dx.doi.org/10.1063/1.1543154


 Hartwigsen, C; Goedecker, S; Hutter, J. 
 PHYSICAL REVIEW B, 58 (7), 3641-3662 (1998). 
 Relativistic separable dual-space Gaussian pseudopotentials from H to Rn.
 http://dx.doi.org/10.1103/PhysRevB.58.3641


 Lippert, G; Hutter, J; Parrinello, M. 
 MOLECULAR PHYSICS, 92 (3), 477-487 (1997). 
 A hybrid Gaussian and plane wave density functional scheme.
 http://dx.doi.org/10.1080/002689797170220


 Goedecker, S; Teter, M; Hutter, J. 
 PHYSICAL REVIEW B, 54 (3), 1703-1710 (1996). 
 Separable dual-space Gaussian pseudopotentials.
 http://dx.doi.org/10.1103/PhysRevB.54.1703


 -------------------------------------------------------------------------------
 -                                                                             -
 -                                T I M I N G                                  -
 -                                                                             -
 -------------------------------------------------------------------------------
 SUBROUTINE                       CALLS  ASD         SELF TIME        TOTAL TIME
                                MAXIMUM       AVERAGE  MAXIMUM  AVERAGE  MAXIMUM
 CP2K                                 1  1.0    0.183    0.438   63.048   63.055
 qs_mol_dyn_low                       1  2.0    0.036    0.052   61.685   61.732
 qs_forces                           11  3.9    0.154    0.211   61.343   61.443
 qs_energies_scf                     11  4.9    0.006    0.057   59.549   59.662
 scf_env_do_scf                      11  5.9    0.001    0.002   54.247   54.251
 scf_env_do_scf_inner_loop          108  6.5    0.005    0.013   50.148   50.160
 qs_scf_loop_do_ot                  108  7.5    0.000    0.001   31.310   31.588
 velocity_verlet                     10  3.0    0.002    0.003   31.273   31.280
 ot_scf_mini                        108  8.5    0.006    0.008   30.057   30.346
 dbcsr_mm_cannon_multiply          2212 11.5    8.357   10.916   27.023   28.358
 ot_mini                            108  9.5    0.007    0.012   17.732   18.118
 cannon_multiply_low               2212 12.5    3.944    6.058   13.145   16.588
 qs_ot_get_derivative               108 10.5    0.003    0.003   14.640   14.923
 rebuild_ks_matrix                  119  8.3    0.001    0.002   11.795   12.247
 qs_ks_build_kohn_sham_matrix       119  9.3    0.036    0.054   11.794   12.246
 qs_ks_update_qs_env                119  7.6    0.001    0.002   10.713   11.121
 cannon_multiply_low_metrocomm3   70784 13.5    4.821   10.041    4.821   10.041
 qs_rho_update_rho                  119  7.7    0.001    0.002    9.485    9.757
 calculate_rho_elec                 119  8.7    1.294    1.512    9.484    9.756
 qs_ot_get_p                        119  9.5    0.002    0.002    8.873    9.201
 sum_up_and_integrate               119 10.3    0.005    0.007    9.071    9.089
 integrate_v_rspace                 119 11.3    1.154    1.444    9.066    9.084
 rs_pw_transfer                     974 11.9    0.009    0.013    8.385    8.676
 qs_ot_get_derivative_diag           49 11.0    0.004    0.005    6.220    6.375
 density_rs2pw                      119  9.7    0.003    0.025    6.113    6.246
 cannon_multiply_low_metrocomm1   70784 13.5    2.855    6.054    2.855    6.054
 rs_distribute_matrix               249 10.9    5.228    5.457    5.250    5.490
 dbcsr_make_images                 4424 12.5    0.009    0.012    4.934    5.367
 make_images                       4424 13.5    0.288    0.309    4.925    5.358
 potential_pw2rs                    119 12.3    0.003    0.003    4.525    4.624
 qs_ot_get_derivative_taylor         59 12.0    0.003    0.004    4.198    4.335
 make_images_sizes                 4424 14.5    3.847    4.056    3.847    4.056
 init_scf_loop                       11  6.9    0.002    0.005    4.011    4.012
 init_scf_run                        11  5.9    0.001    0.046    3.315    3.326
 scf_env_initial_rho_setup           11  6.9    0.002    0.050    3.314    3.326
 lanczos_alg_serial                 119 10.5    3.028    3.141    3.033    3.147
 qs_ot_p2m_diag                      50 10.0    0.003    0.016    3.057    3.093
 fft_wrap_pw1pw2                   1201 11.6    0.005    0.006    2.862    3.041
 rs_pw_transfer_RS2PW_140           130 11.5    2.280    2.758    2.280    2.758
 wfi_extrapolate                     11  7.9    0.004    0.028    2.612    2.637
 dbcsr_complete_redistribute        329 12.8    2.311    2.516    2.335    2.538
 prepare_preconditioner              11  7.9    0.000    0.000    2.357    2.405
 make_preconditioner                 11  8.9    0.000    0.003    2.357    2.405
 make_full_inverse_cholesky          11  9.9    0.000    0.001    2.173    2.222
 qs_ot_get_orbitals                 108  9.5    0.002    0.002    2.008    2.187
 dbcsr_trace_a_b_d                 1205 10.4    1.761    2.184    1.761    2.184
 cannon_multiply_low_multrec      70784 13.5    0.057    0.081    0.626    2.177
 cp_dbcsr_syevd                      50 11.0    0.027    0.033    2.142    2.168
 apply_preconditioner_dbcsr         119 10.7    0.000    0.001    1.815    2.116
 apply_single                       119 11.7    0.001    0.001    1.815    2.116
 cannon_multiply_low_multrec_ma   70784 14.5    0.559    2.091    0.559    2.091
 rs_pw_transfer_RS2PW_50            119 11.7    1.458    1.973    1.458    1.973
 cp_fm_syevd                         50 12.0    1.645    1.778    1.662    1.778
 fft3d_ps                           714 14.0    0.024    0.032    1.597    1.678
 calculate_dm_sparse                119  8.6    0.001    0.002    1.494    1.668
 qs_energies_init_hamiltonians       11  5.9    0.003    0.009    1.493    1.593
 fft_wrap_pw1pw2_140                487 12.2    0.013    0.017    1.252    1.582
 cp_dbcsr_sm_fm_multiply             37  9.5    0.001    0.005    1.529    1.564
 fft3d_pb                           487 13.2    0.060    0.069    1.225    1.554
 qs_env_update_s_mstruct             11  6.9    0.000    0.005    1.374    1.520
 copy_fm_to_dbcsr                   352 11.3    0.005    0.007    1.265    1.452
 qs_ks_update_qs_env_forces          11  4.9    0.000    0.000    1.354    1.401
 cp_fm_cholesky_invert               11 10.9    1.382    1.391    1.382    1.391
 rs_pw_transfer_PW2RS_50            119 14.3    1.017    1.313    1.066    1.364
 rs_pw_transfer_PW2RS_20            119 14.3    1.161    1.285    1.161    1.285
 copy_dbcsr_to_fm                   306 11.3    0.004    0.005    1.087    1.219
 fft_wrap_pw1pw2_50                 238 13.0    0.002    0.003    1.124    1.218
 quickstep_create_force_env           1  2.0    0.212    0.366    1.034    1.137
 cp_fm_syevd_base                    50 13.0    0.017    1.086    0.017    1.086
 cube_transpose_2                   606 14.1    0.512    1.065    0.512    1.065
 make_images_data                  4424 14.5    0.549    0.970    0.549    0.970
 qs_create_task_list                 11  7.9    0.000    0.005    0.938    0.960
 generate_qs_task_list               11  8.9    0.011    0.023    0.938    0.959
 distribute_tasks                    11  9.9    0.004    0.010    0.927    0.950
 dbcsr_new_transposed               954 12.4    0.006    0.009    0.728    0.921
 dbcsr_redistribute                 145 13.7    0.706    0.899    0.711    0.904
 cp_dbcsr_sm_fm_multiply_core        37 10.5    0.001    0.005    0.709    0.873
 cube_transpose_4                   249 14.8    0.658    0.870    0.658    0.870
 rs_pw_transfer_PW2RS_140           130 13.9    0.686    0.802    0.754    0.868
 load_balance_distributed            22 10.9    0.000    0.001    0.787    0.800
 cannon_multiply_low_metrocomm2  137144 13.5    0.450    0.746    0.450    0.746
 make_basis_sm                       11  9.8    0.023    0.039    0.697    0.719
 external_control                   118  7.2    0.483    0.711    0.483    0.711
 rs_pw_transfer_RS2PW_20            119 11.7    0.639    0.707    0.639    0.707
 xz_to_yz                           357 13.7    0.626    0.692    0.626    0.692
 cp_fm_cholesky_decompose            22 10.9    0.665    0.676    0.665    0.676
 rs_pw_transfer_PW2RS_10            119 14.3    0.585    0.644    0.585    0.644
 optimize_load_list                  22 11.9    0.564    0.600    0.564    0.637
 yz_to_xz                           357 16.3    0.587    0.627    0.587    0.627
 calculate_rho_core                  11  7.9    0.030    0.057    0.432    0.586
 ot_scf_init                         11  7.9    0.001    0.002    0.571    0.573
 reorthogonalize_vectors             10  9.0    0.000    0.000    0.530    0.550
 cp_dbcsr_plus_fm_fm_t_native        22  8.9    0.001    0.003    0.509    0.539
 qs_init_subsys                       1  3.0    0.018    0.132    0.464    0.519
 calculate_first_density_matrix       1  7.0    0.001    0.022    0.507    0.513
 rs_pw_transfer_RS2PW_10            119 11.7    0.434    0.485    0.434    0.485
 qs_energies_compute_matrix_w        11  5.9    0.000    0.001    0.463    0.479
 calculate_w_matrix_ot               11  6.9    0.043    0.048    0.463    0.479
 create_qs_kind_set                   1  3.0    0.000    0.046    0.246    0.469
 read_qs_kind                         2  4.0    0.034    0.093    0.245    0.469
 cube_transpose_1                   595 15.2    0.226    0.468    0.226    0.468
 qs_env_setup                         1  4.0    0.006    0.061    0.337    0.456
 parser_read_line                  2671  5.0    0.002    0.002    0.212    0.453
 parser_read_line_low                 4  6.0    0.003    0.060    0.210    0.451
 broadcast_input_information          4  7.0    0.207    0.448    0.207    0.448
 qs_env_rebuild_pw_env               23  4.9    0.001    0.005    0.321    0.445
 pw_env_rebuild                       1  6.0    0.218    0.341    0.320    0.445
 qs_ot_p2m_taylor                    69 10.8    0.002    0.004    0.405    0.438
 cp_gemm                             81  9.0    0.000    0.000    0.395    0.421
 cp_gemm_fm_gemm                     81 10.0    0.000    0.004    0.395    0.421
 cp_fm_gemm                          81 11.0    0.395    0.421    0.395    0.421
 cannon_multiply_low_metrocomm4   68572 13.5    0.274    0.385    0.274    0.385
 get_fft_scratch                   1202 14.6    0.073    0.359    0.073    0.359
 rot_ana                              1  3.0    0.000    0.009    0.096    0.348
 diamat_all                           1  4.0    0.095    0.348    0.095    0.348
 fft3d_s                              1  2.0    0.004    0.100    0.061    0.341
 rs_grid_zero                       736 11.5    0.285    0.340    0.285    0.340
 init_qs_kind_set                     1  4.0    0.000    0.000    0.102    0.321
 init_qs_kind                         2  5.0    0.003    0.155    0.102    0.321
 init_gth_potential                   2  6.0    0.023    0.321    0.023    0.321
 init_orb_basis_set                   2  6.0    0.026    0.319    0.076    0.320
 init_cphi_and_sphi                   2  7.0    0.051    0.318    0.051    0.318
 get_current_loads                  132 11.9    0.266    0.304    0.266    0.304
 fft_wrap_pw1pw2_20                 238 13.0    0.001    0.002    0.270    0.294
 dbcsr_make_images_dense           3830 12.7    0.071    0.075    0.234    0.294
 dbcsr_create_new                 39600 13.3    0.123    0.170    0.242    0.292
 evaluate_core_matrix_traces        119  8.3    0.000    0.001    0.270    0.287
 calculate_ptrace_kp                238  9.3    0.001    0.002    0.270    0.286
 qs_vxc_create                      119 10.3    0.002    0.018    0.222    0.281
 xc_vxc_pw_create                   119 11.3    0.193    0.255    0.220    0.280
 transfer_dbcsr_to_fm                11 10.9    0.117    0.170    0.219    0.267
 compute_load_list                   44 11.9    0.006    0.009    0.216    0.254
 calculate_ecore_overlap             22  5.9    0.169    0.238    0.169    0.238
 topology_control                     1  3.0    0.022    0.120    0.112    0.232
 dbcsr_cholesky_invert               11 11.9    0.152    0.158    0.227    0.229
 fft_wrap_pw1pw2_10                 238 13.0    0.001    0.001    0.210    0.223
 transfer_fm_to_dbcsr                11  9.9    0.000    0.000    0.182    0.209
 cp_dbcsr_cholesky_decompose         11 11.9    0.108    0.127    0.177    0.205
 dbcsr_finalize                    5680 12.7    0.017    0.055    0.151    0.201
 dbcsr_make_dense_low              7530 13.7    0.043    0.046    0.123    0.198
 build_core_hamiltonian_matrix_      11  4.9    0.000    0.000    0.130    0.197
 update_particle_set                 20  4.0    0.188    0.196    0.188    0.196
 connectivity_control                 1  4.0    0.008    0.081    0.075    0.190
 md_output                           10  3.0    0.000    0.001    0.006    0.180
 build_core_hamiltonian_matrix       11  6.9    0.007    0.054    0.087    0.175
 md_write_output                     11  3.9    0.002    0.066    0.004    0.169
 dbcsr_data_release              156359 14.5    0.098    0.116    0.143    0.167
 dbcsr_data_new                   89613 14.3    0.081    0.109    0.131    0.163
 cube_transpose_3                   238 13.5    0.112    0.156    0.112    0.156
 dbcsr_merge_all                   4761 13.8    0.039    0.058    0.111    0.151
 dbcsr_destroy                    33940 12.7    0.064    0.078    0.118    0.144
 calculate_atomic_block_dm            1  8.0    0.003    0.063    0.133    0.141
 topology_generate_bond               1  5.0    0.001    0.072    0.052    0.136
 build_overlap_matrix                22  6.9    0.027    0.125    0.037    0.133
 build_core_ppl_forces               11  5.9    0.055    0.133    0.055    0.133
 setup_buffer_matrices             4424 13.5    0.026    0.086    0.067    0.128
 atom_int_setup                       2  9.0    0.046    0.127    0.047    0.127
 topology_generate_bond_4             1  6.0    0.003    0.114    0.004    0.114
 connectivity_control_check_ele       1  5.0    0.012    0.113    0.012    0.113
 make_dense_data                   7530 14.7    0.032    0.076    0.039    0.109
 dbcsr_mm_multrec_init             2212 13.5    0.007    0.063    0.044    0.105
 write_trajectory                    44  4.9    0.001    0.036    0.001    0.103
 integrate_v_core_rspace             11  7.9    0.005    0.008    0.072    0.097
 dbcsr_special_finalize            6636 14.5    0.010    0.012    0.076    0.097
 dbcsr_mm_csr_init                 2212 14.5    0.030    0.088    0.038    0.096
 topology_generate_bond_1             1  6.0    0.002    0.094    0.002    0.094
 topology_generate_bond_2             1  6.0    0.023    0.093    0.023    0.093
 dbcsr_make_dense                  1785 12.8    0.005    0.005    0.064    0.090
 make_images_pack                  4424 14.5    0.037    0.070    0.055    0.088
 create_local_tasks                  11 10.9    0.078    0.087    0.078    0.087
 build_core_ppl                      11  7.9    0.029    0.087    0.029    0.087
 dbcsr_finalize_lib                   1  2.0    0.084    0.086    0.084    0.086
 topology_connectivity_pack           1  4.0    0.000    0.000    0.008    0.085
 topology_coordinate_pack             1  4.0    0.000    0.000    0.003    0.084
 topology_connectivity_pack_6         1  5.0    0.001    0.084    0.001    0.084
 topology_coordinate_pack_5           1  5.0    0.001    0.084    0.001    0.084
 topology_generate_bond_6             1  6.0    0.017    0.083    0.017    0.083
 topology_generate_molecule           1  5.0    0.001    0.081    0.001    0.081
 topology_connectivity_pack_10        1  5.0    0.001    0.078    0.001    0.078
 dbcsr_make_undense                1785 12.8    0.020    0.041    0.043    0.077
 dbcsr_add_d                       1789 11.2    0.002    0.002    0.054    0.075
 contract2                           15 10.0    0.001    0.075    0.001    0.075
 build_core_ppnl                     11  7.9    0.019    0.074    0.019    0.074
 dbcsr_add_anytype                 1789 12.2    0.011    0.026    0.052    0.073
 build_core_ppnl_forces              11  5.9    0.044    0.072    0.044    0.072
 cp_fm_triangular_multiply           11 10.8    0.050    0.071    0.050    0.071
 dbcsr_copy                        6369 11.3    0.020    0.024    0.064    0.070
 topology_connectivity_pack_13_       1  5.0    0.001    0.069    0.001    0.069
 write_particle_coordinates          11  5.9    0.000    0.067    0.000    0.067
 dbcsr_iterator_start             24515 14.2    0.034    0.048    0.045    0.066
 qs_scf_ensure_work_matrices         11  5.9    0.017    0.065    0.017    0.065
 quick_finalize                    6454 15.5    0.020    0.024    0.050    0.065
 calculate_atom                       2  9.0    0.000    0.000    0.008    0.065
 calculate_atom_restricted            2 10.0    0.008    0.065    0.008    0.065
 topology_constraint_pack             1  4.0    0.000    0.000    0.001    0.065
 topology_constraint_pack_3           1  5.0    0.001    0.065    0.001    0.065
 dbcsr_make_index_exist           39600 14.3    0.053    0.064    0.053    0.064
 topology_coordinate_pack_7a          1  5.0    0.001    0.064    0.001    0.064
 dbcsr_switch_data_area           21856 14.6    0.022    0.025    0.059    0.063
 topology_generate_bond_3             1  6.0    0.000    0.025    0.006    0.063
 build_fist_neighbor_lists            1  7.0    0.003    0.062    0.005    0.063
 internal_data_allocate           56497 15.4    0.051    0.062    0.051    0.062
 pw_grid_setup                        4  7.0    0.017    0.022    0.055    0.062
 internal_data_deallocate         56497 15.6    0.046    0.061    0.046    0.061
 distribute_molecules_2d              1  5.0    0.001    0.027    0.002    0.060
 make_basic_distribution              1  6.0    0.000    0.060    0.000    0.060
 dbcsr_work_create                12033 13.8    0.025    0.045    0.035    0.056
 topology_connectivity_pack_12        1  5.0    0.001    0.054    0.001    0.054
 topology_molecules_check             1  5.0    0.000    0.054    0.000    0.054
 topology_connectivity_pack_5         1  5.0    0.001    0.052    0.001    0.052
 topology_connectivity_pack_13        1  5.0    0.001    0.052    0.001    0.052
 topology_coordinate_pack_2           1  5.0    0.000    0.052    0.000    0.052
 merge_index                       4761 14.8    0.038    0.051    0.038    0.051
 check_generate_mol                   1  7.0    0.000    0.050    0.000    0.050
 topology_connectivity_pack_7         1  5.0    0.000    0.050    0.000    0.050
 topology_connectivity_pack_4         1  5.0    0.001    0.049    0.001    0.049
 topology_coordinate_pack_1           1  5.0    0.001    0.045    0.001    0.045
 topology_connectivity_pack_14        1  5.0    0.001    0.045    0.001    0.045
 balance_global_list                 22 12.9    0.000    0.044    0.000    0.044
 cp_dbcsr_alloc_block_from_nbl       66  7.9    0.002    0.035    0.007    0.044
 topology_connectivity_pack_11        1  5.0    0.000    0.042    0.000    0.042
 pw_poisson_solve                   119 10.3    0.028    0.039    0.032    0.042
 topology_muc                         1  5.0    0.000    0.042    0.000    0.042
 xc_rho_set_and_dset_create         119 12.3    0.002    0.017    0.026    0.041
 cp_fm_upper_to_full                 22 11.9    0.018    0.038    0.018    0.038
 topology_connectivity_pack_2         1  5.0    0.001    0.038    0.001    0.038
 dbcsr_iterator_stop              24515 14.2    0.017    0.025    0.026    0.038
 xc_functional_eval                 119 13.3    0.022    0.036    0.022    0.036
 distribute_molecules_1d              1  4.0    0.002    0.036    0.002    0.036
 dbcsr_make_untransposed_blocks    2655 12.4    0.015    0.021    0.029    0.035
 build_kinetic_matrix                22  6.9    0.023    0.033    0.024    0.034
 scf_c_create                         1  4.0    0.000    0.034    0.000    0.034
 write_structure_data                12  4.8    0.001    0.034    0.001    0.034
 rs_grid_create_descriptor            4  7.0    0.031    0.033    0.031    0.033
 tree_to_linear_d                  1073 14.6    0.016    0.032    0.016    0.032
 dbcsr_sort_indices                9992 14.7    0.014    0.030    0.014    0.030
 load_balance_replicated             11 10.9    0.002    0.003    0.028    0.029
 dbcsr_reserve_blocks                66  8.9    0.004    0.028    0.004    0.029
 topology_set_atm_mass                1  5.0    0.001    0.029    0.001    0.029
 write_restart                       10  4.0    0.000    0.028    0.003    0.028
 compute_max_radius                   1  7.0    0.014    0.027    0.014    0.027
 buffer_matrices_ensure_size       4424 13.5    0.020    0.027    0.020    0.027
 dbcsr_work_destroy_all           12033 14.7    0.016    0.018    0.024    0.027
 pw_grid_remap                        4  8.0    0.023    0.026    0.023    0.026
 topology_connectivity_pack_3         1  5.0    0.000    0.025    0.000    0.025
 dbcsr_make_dists_dense            1915 12.7    0.023    0.024    0.023    0.024
 create_grid_atom                     2  9.0    0.001    0.023    0.001    0.023
 wfs_update                          11  5.9    0.001    0.019    0.002    0.020
 build_qs_neighbor_lists             11  6.9    0.001    0.003    0.017    0.020
 init_interaction_radii               1  4.0    0.001    0.019    0.001    0.019
 topology_connectivity_pack_9         1  5.0    0.000    0.019    0.000    0.019
 dbcsr_iterator_seek              24515 15.2    0.011    0.019    0.011    0.019
 scf_post_calculation_gpw            11  5.9    0.000    0.003    0.002    0.019
 write_available_results             11  6.9    0.000    0.017    0.001    0.018
 dbcsr_data_copy_aa2               2742 14.2    0.008    0.018    0.008    0.018
 dbcsr_get_local_cols              3997 13.1    0.016    0.017    0.016    0.017
 dbcsr_get_data_size_used          5397 13.8    0.005    0.017    0.005    0.017
 pw_scale                           119 10.3    0.001    0.017    0.001    0.017
 atom_ppint_setup                     2  9.0    0.001    0.016    0.002    0.016
 dbcsr_index_prune_deleted         5745 13.7    0.014    0.016    0.014    0.016
 dbcsr_mm_multrec_finalize         2212 14.5    0.006    0.007    0.010    0.015
 setup_velocities                     1  3.0    0.000    0.013    0.002    0.015
 pw_scatter_p                       595 14.2    0.010    0.015    0.010    0.015
 initialize_velocities                1  4.0    0.001    0.014    0.001    0.014
 dbcsr_merge_single_wm              854 14.0    0.005    0.006    0.009    0.014
 setup_rec_index                   4424 13.5    0.003    0.005    0.008    0.014
 dbcsr_make_index_list             6636 12.5    0.011    0.014    0.011    0.014
 dbcsr_set_anytype                  603 10.9    0.006    0.010    0.009    0.013
 pw_grid_distribute                   4  8.0    0.012    0.013    0.012    0.013
 pw_copy                            952 12.4    0.010    0.013    0.010    0.013
 pw_pool_create_pw                 2416 11.8    0.003    0.013    0.003    0.013
 sg_erf                               5 10.0    0.000    0.012    0.000    0.012
 dbcsr_add_wm_from_matrix           443 11.9    0.001    0.001    0.009    0.011
 write_symmetry                       1  4.0    0.001    0.011    0.001    0.011
 mpools_rebuild_fm_pools              1  5.0    0.009    0.011    0.009    0.011
 dbcsr_get_local_rows              3997 13.1    0.010    0.011    0.010    0.011
 dbcsr_make_index_local_row        6636 12.5    0.010    0.011    0.010    0.011
 dbcsr_data_copyall                1534 12.4    0.007    0.011    0.007    0.011
 dbcsr_make_dbcsr_index           13313 15.5    0.009    0.011    0.009    0.011
 contract2add                        10 10.0    0.000    0.011    0.000    0.011
 pw_gather_p                        606 13.1    0.007    0.011    0.007    0.011
 restraint_control                   11  3.9    0.003    0.010    0.003    0.010
 build_neighbor_lists                 1  8.0    0.002    0.010    0.002    0.010
 cp_fm_init_random                    1  8.0    0.005    0.010    0.005    0.010
 qs_energies_properties              11  5.9    0.000    0.009    0.000    0.009
 build_neighbor_lists_sac_ppl        11  7.9    0.008    0.009    0.008    0.009
 call_rec_sort_index               5217 14.3    0.005    0.009    0.005    0.009
 dbcsr_fill_wm_from_matrix          443 12.9    0.004    0.005    0.007    0.009
 dbcsr_mm_sched_finalize           2212 15.5    0.004    0.009    0.004    0.009
 cp_dbcsr_multiply_local_d          734 11.1    0.002    0.004    0.005    0.007
 topology_generate_molecule_PAR       1  6.0    0.000    0.007    0.000    0.007
 qs_energies_init_kg                 11  5.9    0.000    0.007    0.000    0.007
 create_destination_list             22 11.9    0.006    0.007    0.006    0.007
 qs_env_rebuild_rho                  11  7.9    0.000    0.005    0.003    0.007
 calculate_atom_vxc_lda              12 11.0    0.000    0.007    0.000    0.007
 qs_rho_rebuild                      11  8.9    0.002    0.005    0.003    0.007
 dbcsr_add_on_diag_anytype          138 11.8    0.001    0.003    0.004    0.007
 external_c_potential                22  5.9    0.000    0.006    0.000    0.006
 external_e_potential                22  5.9    0.000    0.006    0.000    0.006
 dbcsr_mm_sched_init               2212 15.5    0.002    0.004    0.003    0.006
 transpose_index_local              954 13.4    0.002    0.003    0.003    0.006
 qs_ks_did_change                   130  7.7    0.000    0.005    0.001    0.005
 read_binary_coordinates              1  4.0    0.000    0.005    0.000    0.005
 coordinate_control                   1  4.0    0.000    0.002    0.003    0.005
 cp_fm_to_fm_matrix                  21  7.9    0.000    0.005    0.000    0.005
 cp_fm_create                       325 11.2    0.001    0.005    0.001    0.005
 pw_pool_give_back_pw              2867 12.0    0.003    0.005    0.003    0.005
 coordinate_control_READ_COORDI       1  5.0    0.000    0.002    0.003    0.005
 qs_scf_ensure_mos                   11  5.9    0.001    0.005    0.001    0.005
 pw_axpy                            595 10.6    0.003    0.005    0.003    0.005
 dbcsr_scale_by_vector_anytype      208 10.2    0.001    0.003    0.002    0.004
 update_input                         1  5.0    0.002    0.003    0.003    0.004
 write_mo_dependent_results          11  7.9    0.000    0.004    0.000    0.004
 scf_c_write_parameters               1  4.0    0.000    0.004    0.000    0.004
 build_neighbor_lists_sap_ppnl       11  7.9    0.004    0.004    0.004    0.004
 read_atoms_input                     1  6.0    0.003    0.004    0.003    0.004
 write_mo_free_results               11  7.9    0.001    0.004    0.001    0.004
 scf_c_read_parameters                1  4.0    0.000    0.004    0.000    0.004
 dbcsr_scale_anytype               1898 13.1    0.002    0.003    0.002    0.004
 fill_hash_tables                  2212 15.5    0.003    0.004    0.003    0.004
 dbcsr_hadamard_product              98 12.0    0.001    0.001    0.003    0.004
 dbcsr_scale_d                      109 10.5    0.000    0.001    0.002    0.004
 dbcsr_sort_data                    854 15.0    0.001    0.003    0.001    0.003
 pw_grid_sort                         4  8.0    0.001    0.003    0.002    0.003
 build_neighbor_lists_sab_orb        11  7.9    0.001    0.003    0.001    0.003
 read_topology_section                1  4.0    0.000    0.003    0.000    0.003
 pw_env_create                        1  6.0    0.000    0.003    0.000    0.003
 scf_env_release                      3  4.0    0.000    0.003    0.000    0.003
 update_motion                        1  6.0    0.000    0.000    0.000    0.003
 qs_scf_post_charges                 11  6.9    0.000    0.000    0.000    0.003
 update_motion_AVERAGES               1  7.0    0.000    0.003    0.000    0.003
 resp_fit                            11  7.9    0.000    0.003    0.000    0.003
 fist_neighbor_init                   1  9.0    0.000    0.003    0.000    0.003
 pw_create                          382 12.9    0.001    0.003    0.001    0.003
 sort_shells                          4  9.0    0.001    0.003    0.001    0.003
 dbcsr_get_global_col_map          2212 12.5    0.002    0.003    0.002    0.003
 dbcsr_get_global_row_map          2212 12.5    0.002    0.002    0.002    0.002
 compute_averages                    10  5.0    0.001    0.002    0.001    0.002
 atom2d_build                        11  7.9    0.000    0.002    0.000    0.002
 update_subsys                        1  6.0    0.000    0.001    0.001    0.002
 dbcsr_verify_matrix                 22  9.9    0.001    0.002    0.001    0.002
 temperature_control                 10  3.0    0.001    0.002    0.001    0.002
 pw_zero                            119 10.7    0.002    0.002    0.002    0.002
 dbcsr_filter_anytype               163  9.7    0.000    0.002    0.000    0.002
 sort_neighbor_lists                  1  8.0    0.000    0.002    0.000    0.002
 update_motion_NPT                    1  7.0    0.000    0.002    0.000    0.002
 dump_info_core_hamiltonian          22  6.9    0.000    0.002    0.000    0.002
 build_neighbor_lists_sab_core       11  7.9    0.002    0.002    0.002    0.002
 fix_atom_control                    11  3.9    0.001    0.002    0.001    0.002
 cleanup_scf_loop                    11  7.9    0.000    0.000    0.002    0.002
 section_coord_val_set                1  7.0    0.001    0.002    0.001    0.002
 build_neighbor_lists_sab_all        11  7.9    0.001    0.002    0.001    0.002
 ot_scf_read_input                   11  7.9    0.000    0.001    0.001    0.002
 qs_scf_post_xray                    11  6.9    0.000    0.002    0.000    0.002
 metadyn_read                         1  2.0    0.000    0.002    0.000    0.002
 write_mo_set_to_restart            108  7.5    0.002    0.002    0.002    0.002
 qs_scf_loop_print                  108  7.5    0.002    0.002    0.002    0.002
 pw_grid_assign                       4  8.0    0.001    0.002    0.001    0.002
 dbcsr_mm_hostdrv_init             2212 16.5    0.001    0.002    0.001    0.002
 make_full_kinetic                   11  9.9    0.000    0.000    0.001    0.002
 ot_readwrite_input                  11  8.9    0.000    0.002    0.000    0.002
 qs_scf_post_molopt                  11  6.9    0.000    0.002    0.000    0.002
 calculate_ecore_efield              22  5.9    0.000    0.002    0.000    0.002
 set_mo_occupation_1                120  8.5    0.000    0.002    0.000    0.002
 cp_result_release                    1  2.0    0.000    0.001    0.000    0.001
 dbcsr_get_conf_nstacks            2212 15.5    0.001    0.001    0.001    0.001
 write_qs_control                     1  4.0    0.001    0.001    0.001    0.001
 create_local_fixd_list              11  4.9    0.000    0.001    0.000    0.001
 cp_fm_scale_and_add                 24  9.0    0.000    0.001    0.000    0.001
 read_qs_section                      1  4.0    0.001    0.001    0.001    0.001
 init_cube_info                       4  7.0    0.001    0.001    0.001    0.001
 atom_relint_setup                    2  9.0    0.000    0.001    0.000    0.001
 free_energy_evaluate                10  3.0    0.001    0.001    0.001    0.001
 qs_scf_print_scf_summary            11  7.9    0.000    0.001    0.000    0.001
 cp_fm_set_all                        1  8.0    0.000    0.001    0.000    0.001
 qs_efield_berry_phase              119 10.3    0.000    0.001    0.000    0.001
 write_dft_control                    1  4.0    0.000    0.001    0.000    0.001
 cp_fm_release                      330 10.8    0.000    0.001    0.000    0.001
 qs_scf_post_gemopt                  11  6.9    0.000    0.000    0.000    0.000
 write_molecule_kind_set              1  4.0    0.000    0.000    0.000    0.000
 update_cell_section                  1  7.0    0.000    0.000    0.000    0.000
 topology_generate_onfo               1  5.0    0.000    0.000    0.000    0.000
 write_gto_basis_sets                 1  4.0    0.000    0.000    0.000    0.000
 calculate_ecore_self                22  5.9    0.000    0.000    0.000    0.000
 qs_scf_post_elf                     11  6.9    0.000    0.000    0.000    0.000
 topology_coordinate_pack_89          1  5.0    0.000    0.000    0.000    0.000
 rs_grid_create                      26  9.5    0.000    0.000    0.000    0.000
 write_particle_distances             1  4.0    0.000    0.000    0.000    0.000
 topology_coordinate_pack_11          1  5.0    0.000    0.000    0.000    0.000
 qs_scf_post_efg                     11  6.9    0.000    0.000    0.000    0.000
 comvel_control                      10  3.0    0.000    0.000    0.000    0.000
 remove_restart_info                  1  2.0    0.000    0.000    0.000    0.000
 section_velocity_val_set             1  7.0    0.000    0.000    0.000    0.000
 wfn_mix                             11  6.9    0.000    0.000    0.000    0.000
 cp_ddapc_init                       11  7.9    0.000    0.000    0.000    0.000
 qs_scf_post_epr                     11  6.9    0.000    0.000    0.000    0.000
 write_qs_kind_set                    1  4.0    0.000    0.000    0.000    0.000
 qs_scf_post_moments                 11  6.9    0.000    0.000    0.000    0.000
 write_qs_particle_coordinates        1  4.0    0.000    0.000    0.000    0.000
 rs_grid_reorder_ranks               11 10.9    0.000    0.000    0.000    0.000
 -------------------------------------------------------------------------------

  **** **** ******  **  PROGRAM ENDED AT                 2017-10-20 14:00:44.215
 ***** ** ***  *** **   PROGRAM RAN ON                                      b013
 **    ****   ******    PROGRAM RAN BY                                    ongari
 ***** **    ** ** **   PROGRAM PROCESS ID                                  7098
  **** **  *******  **  PROGRAM STOPPED IN /scratch/ongari/1_benchmark_official/
                                           cp2k/01_bellatrix_cp2k-2.6_deprecated
                                           -intel/ncores_512
