 DBCSR| Multiplication driver                                               BLAS
 DBCSR| Multrec recursion limit                                              512
 DBCSR| Multiplication stack size                                           1000
 DBCSR| Maximum elements for images                                    UNLIMITED
 DBCSR| Multiplicative factor virtual images                                   1
 DBCSR| Randmat seed                                                    12341313
 DBCSR| Multiplication size stacks                                             3
 DBCSR| Number of 3D layers                                               SINGLE
 DBCSR| Use MPI memory allocation                                              T
 DBCSR| Use RMA algorithm                                                      F
 DBCSR| Use Communication thread                                               T
 DBCSR| Communication thread load                                             87


  **** **** ******  **  PROGRAM STARTED AT               2017-10-27 12:42:02.818
 ***** ** ***  *** **   PROGRAM STARTED ON                                  f076
 **    ****   ******    PROGRAM STARTED BY                                ongari
 ***** **    ** ** **   PROGRAM PROCESS ID                                 23464
  **** **  *******  **  PROGRAM STARTED IN /scratch/ongari/lsmo_benchmark/cp2k/0
                                           3_fidis_cp2k-4.1_intel-mpi/ncores_016

 CP2K| version string:                                          CP2K version 4.1
 CP2K| source code revision number:                                    svn:17462
 CP2K| cp2kflags: libint fftw3 pexsi elpa3 parallel mpi3 scalapack libderiv_max_
 CP2K|            am1=5 libint_max_am=6
 CP2K| is freely available from                            https://www.cp2k.org/
 CP2K| Program compiled at                          Thu Jul 6 13:00:27 CEST 2017
 CP2K| Program compiled on                                                  f407
 CP2K| Program compiled for                  linux-rhel7-x86_E5v4_Mellanox-intel
 CP2K| Data directory path    /dev/shm/scitasbuild/spack-stage/spack-stage-C7cc3
 CP2K| Input file name                                                H2O-64.inp
 
 GLOBAL| Force Environment number                                              1
 GLOBAL| Basis set file name                                      GTH_BASIS_SETS
 GLOBAL| Potential file name                                           POTENTIAL
 GLOBAL| MM Potential file name                                     MM_POTENTIAL
 GLOBAL| Coordinate file name                                      __STD_INPUT__
 GLOBAL| Method name                                                        CP2K
 GLOBAL| Project name                                                     H2O-64
 GLOBAL| Preferred FFT library                                             FFTW3
 GLOBAL| Preferred diagonalization lib.                                       SL
 GLOBAL| Run type                                                             MD
 GLOBAL| All-to-all communication in single precision                          F
 GLOBAL| FFTs using library dependent lengths                                  F
 GLOBAL| Global print level                                                  LOW
 GLOBAL| Total number of message passing processes                            16
 GLOBAL| Number of threads for this process                                    1
 GLOBAL| This output is from process                                           0
 GLOBAL| CPU model name :  Intel(R) Xeon(R) CPU E5-2690 v4 @ 2.60GHz

 MEMORY| system memory details [Kb]
 MEMORY|                        rank 0           min           max       average
 MEMORY| MemTotal            131627604     131627604     131627604     131627604
 MEMORY| MemFree             124434308     124434308     124434308     124434308
 MEMORY| Buffers                  5408          5408          5408          5408
 MEMORY| Cached                 183532        183532        183532        183532
 MEMORY| Slab                   307044        307044        307044        307044
 MEMORY| SReclaimable            81484         81484         81484         81484
 MEMORY| MemLikelyFree       124704732     124704732     124704732     124704732

 
 GENERATE|  Preliminary Number of Bonds generated:                             0
 GENERATE|  Achieved consistency in connectivity generation.

 *******************************************************************************
 *******************************************************************************
 **                                                                           **
 **     #####                         ##              ##                      **
 **    ##   ##            ##          ##              ##                      **
 **   ##     ##                       ##            ######                    **
 **   ##     ##  ##   ##  ##   #####  ##  ##   ####   ##    #####    #####    **
 **   ##     ##  ##   ##  ##  ##      ## ##   ##      ##   ##   ##  ##   ##   **
 **   ##  ## ##  ##   ##  ##  ##      ####     ###    ##   ######   ######    **
 **    ##  ###   ##   ##  ##  ##      ## ##      ##   ##   ##       ##        **
 **     #######   #####   ##   #####  ##  ##  ####    ##    #####   ##        **
 **           ##                                                    ##        **
 **                                                                           **
 **                                                ... make the atoms dance   **
 **                                                                           **
 **            Copyright (C) by CP2K developers group (2000 - 2016)           **
 **                                                                           **
 *******************************************************************************


 SCF PARAMETERS         Density guess:                                    ATOMIC
                        --------------------------------------------------------
                        max_scf:                                              50
                        max_scf_history:                                       0
                        max_diis:                                              4
                        --------------------------------------------------------
                        eps_scf:                                        1.00E-05
                        eps_scf_history:                                0.00E+00
                        eps_diis:                                       1.00E-01
                        eps_eigval:                                     1.00E-05
                        --------------------------------------------------------
                        level_shift [a.u.]:                                 0.00
                        --------------------------------------------------------
                        No outer SCF
 
 MD| Molecular Dynamics Protocol 
 MD| Ensemble Type                                                           NVE
 MD| Number of Time Steps                                                     10
 MD| Time Step [fs]                                                         0.50
 MD| Temperature [K]                                                      300.00
 MD| Temperature tolerance [K]                                              0.00
 MD| Print MD information every                                        1 step(s)
 MD| File type     Print frequency[steps]                             File names
 MD| Coordinates            1                                   H2O-64-pos-1.xyz
 MD| Velocities             1                                   H2O-64-vel-1.xyz
 MD| Energies               1                                      H2O-64-1.ener
 MD| Dump                  20                                   H2O-64-1.restart
 
 ROT| Rotational Analysis Info 
 ROT| Principal axes and moments of inertia in atomic units:
 ROT|                                1                 2                 3
 ROT| EIGENVALUES            0.174175353E+09   0.187507692E+09   0.199545123E+09
 ROT|      X                    -0.734964520       0.242599134       0.633224142
 ROT|      Y                    -0.044883650       0.914361712      -0.402402930
 ROT|      Z                    -0.676618513      -0.324173287      -0.661134682
 ROT| Numer of Rotovibrational vectors:     6

 Calculation of degrees of freedom
                                                      Number of atoms:       192
                                 Number of Intramolecular constraints:         0
                                 Number of Intermolecular constraints:         0
                                  Invariants(translation + rotations):         3
                                                   Degrees of freedom:       573


 Restraints Information
                                  Number of Intramolecular restraints:         0
                                  Number of Intermolecular restraints:         0
 ************************** Velocities initialization **************************
 Initial Temperature                                                    300.00 K
 COM velocity:           -0.000000000000     -0.000000000000     -0.000000000000
 *******************************************************************************


 Number of electrons:                                                        512
 Number of occupied orbitals:                                                256
 Number of molecular orbitals:                                               256

 Number of orbital functions:                                               2560
 Number of independent orbital functions:                                   2560

 Extrapolation method: initial_guess


 SCF WAVEFUNCTION OPTIMIZATION

  ----------------------------------- OT ---------------------------------------
  Minimizer      : DIIS                : direct inversion
                                         in the iterative subspace
                                         using   7 DIIS vectors
                                         safer DIIS on
  Preconditioner : FULL_KINETIC        : inversion of T + eS
  Precond_solver : DEFAULT
  stepsize       :    0.15000000                  energy_gap     :    0.20000000
  eps_taylor     :   0.10000E-15                  max_taylor     :             4
  ----------------------------------- OT ---------------------------------------

  Step     Update method      Time    Convergence         Total energy    Change
  ------------------------------------------------------------------------------
     1 OT DIIS     0.15E+00    0.7     0.01332027     -1059.3825079557 -1.06E+03
     2 OT DIIS     0.15E+00    0.8     0.00868183     -1073.0837973670 -1.37E+01
     3 OT DIIS     0.15E+00    0.8     0.00608177     -1082.3329449393 -9.25E+00
     4 OT DIIS     0.15E+00    0.8     0.00420419     -1088.9991944739 -6.67E+00
     5 OT DIIS     0.15E+00    0.8     0.00319228     -1092.5975694249 -3.60E+00
     6 OT DIIS     0.15E+00    0.8     0.00242089     -1095.2728736089 -2.68E+00
     7 OT DIIS     0.15E+00    0.8     0.00180823     -1097.1827110188 -1.91E+00
     8 OT DIIS     0.15E+00    0.8     0.00136563     -1098.4047633189 -1.22E+00
     9 OT DIIS     0.15E+00    0.8     0.00107154     -1099.0957253931 -6.91E-01
    10 OT DIIS     0.15E+00    0.8     0.00085958     -1099.5568478897 -4.61E-01
    11 OT DIIS     0.15E+00    0.8     0.00070902     -1099.8674344588 -3.11E-01
    12 OT DIIS     0.15E+00    0.8     0.00059349     -1100.0778291172 -2.10E-01
    13 OT DIIS     0.15E+00    0.8     0.00050949     -1100.2324062136 -1.55E-01
    14 OT DIIS     0.15E+00    0.8     0.00044833     -1100.3361495732 -1.04E-01
    15 OT DIIS     0.15E+00    0.8     0.00039690     -1100.4341573205 -9.80E-02
    16 OT DIIS     0.15E+00    0.8     0.00035862     -1100.5038829257 -6.97E-02
    17 OT DIIS     0.15E+00    0.8     0.00034534     -1100.5572959989 -5.34E-02
    18 OT DIIS     0.15E+00    0.8     0.00034139     -1100.5793052943 -2.20E-02
    19 OT DIIS     0.15E+00    0.8     0.00033463     -1100.5947747725 -1.55E-02
    20 OT SD       0.15E+00    0.8     0.00033658     -1100.6056260666 -1.09E-02
    21 OT DIIS     0.15E+00    0.8     0.00033500     -1100.6167319763 -1.11E-02
    22 OT DIIS     0.15E+00    0.8     0.00032752     -1100.6181772877 -1.45E-03
    23 OT DIIS     0.15E+00    0.8     0.00032184     -1100.6243788064 -6.20E-03
    24 OT DIIS     0.15E+00    0.8     0.00030944     -1100.6371111614 -1.27E-02
    25 OT SD       0.15E+00    0.8     0.00030022     -1100.6455945048 -8.48E-03
    26 OT DIIS     0.15E+00    0.8     0.00029911     -1100.6544335251 -8.84E-03
    27 OT DIIS     0.15E+00    0.8     0.00028894     -1100.6591662825 -4.73E-03
    28 OT SD       0.15E+00    0.8     0.00028473     -1100.6665469324 -7.38E-03
    29 OT SD       0.15E+00    0.8     0.00028442     -1100.6745080801 -7.96E-03
    30 OT SD       0.15E+00    0.8     0.00028480     -1100.6824637367 -7.96E-03
    31 OT SD       0.15E+00    0.8     0.00028544     -1100.6904451527 -7.98E-03
    32 OT DIIS     0.15E+00    0.8     0.00028617     -1100.6984643086 -8.02E-03
    33 OT SD       0.15E+00    0.8     0.00033212     -1100.7435639636 -4.51E-02
    34 OT SD       0.15E+00    0.8     0.00031463     -1100.7540641968 -1.05E-02
    35 OT SD       0.15E+00    0.8     0.00030588     -1100.7636402128 -9.58E-03
    36 OT SD       0.15E+00    0.8     0.00030057     -1100.7727489685 -9.11E-03
    37 OT SD       0.15E+00    0.8     0.00029679     -1100.7815697671 -8.82E-03
    38 OT SD       0.15E+00    0.8     0.00029367     -1100.7901809979 -8.61E-03
    39 OT DIIS     0.15E+00    0.8     0.00029082     -1100.7986166935 -8.44E-03
    40 OT SD       0.15E+00    0.8     0.00016832     -1100.9875398765 -1.89E-01
    41 OT DIIS     0.15E+00    0.8     0.00014749     -1100.9901042387 -2.56E-03
    42 OT DIIS     0.15E+00    0.8     0.00023359     -1100.9860270228  4.08E-03
    43 OT DIIS     0.15E+00    0.8     0.00017591     -1100.9988969365 -1.29E-02
    44 OT DIIS     0.15E+00    0.8     0.00022226     -1101.0010831347 -2.19E-03
    45 OT DIIS     0.15E+00    0.8     0.00015342     -1101.0160500108 -1.50E-02
    46 OT DIIS     0.15E+00    0.8     0.00005874     -1101.0255699554 -9.52E-03
    47 OT DIIS     0.15E+00    0.8     0.00007360     -1101.0255460654  2.39E-05
    48 OT DIIS     0.15E+00    0.8     0.00005773     -1101.0267774769 -1.23E-03
    49 OT DIIS     0.15E+00    0.8     0.00005383     -1101.0275719805 -7.95E-04
    50 OT DIIS     0.15E+00    0.8     0.00004287     -1101.0287889096 -1.22E-03

  Leaving inner SCF loop after reaching    50 steps.


  Electronic density on regular grids:       -512.0000015471       -0.0000015471
  Core density on regular grids:              512.0000000045        0.0000000045
  Total charge density on r-space grids:       -0.0000015426
  Total charge density g-space grids:          -0.0000015426

  Overlap energy of the core charge distribution:               0.00000562599749
  Self energy of the core charge distribution:              -2805.30499493854950
  Core Hamiltonian energy:                                    825.29378519489660
  Hartree energy:                                            1145.26167274402474
  Exchange-correlation energy:                               -266.27925753601914

  Total energy:                                             -1101.02878890964985

 *** WARNING in qs_scf.F:467 :: SCF run NOT converged ***


 ENERGY| Total FORCE_EVAL ( QS ) energy (a.u.):            -1101.031006970648150

 
 MD_ENERGIES| Initialization proceeding
 

 ******************************** GO CP2K GO! **********************************
 INITIAL POTENTIAL ENERGY[hartree]     =                     -0.110103100697E+04
 INITIAL KINETIC ENERGY[hartree]       =                      0.272187778755E+00
 INITIAL TEMPERATURE[K]                =                                 300.000
 INITIAL VOLUME[bohr^3]                =                      0.129095421321E+05
 INITIAL CELL LNTHS[bohr]   =      0.2345868E+02   0.2345868E+02   0.2345868E+02
 INITIAL CELL ANGLS[deg]    =      0.9000000E+02   0.9000000E+02   0.9000000E+02
 ******************************** GO CP2K GO! **********************************

 Number of electrons:                                                        512
 Number of occupied orbitals:                                                256
 Number of molecular orbitals:                                               256

 Number of orbital functions:                                               2560
 Number of independent orbital functions:                                   2560

 Extrapolation method: PS Nth order


 SCF WAVEFUNCTION OPTIMIZATION

  ----------------------------------- OT ---------------------------------------
  Minimizer      : DIIS                : direct inversion
                                         in the iterative subspace
                                         using   7 DIIS vectors
                                         safer DIIS on
  Preconditioner : FULL_KINETIC        : inversion of T + eS
  Precond_solver : DEFAULT
  stepsize       :    0.15000000                  energy_gap     :    0.20000000
  eps_taylor     :   0.10000E-15                  max_taylor     :             4
  ----------------------------------- OT ---------------------------------------

  Step     Update method      Time    Convergence         Total energy    Change
  ------------------------------------------------------------------------------
     1 OT DIIS     0.15E+00    0.7     0.00024949     -1101.0278031975 -1.10E+03
     2 OT DIIS     0.15E+00    0.8     0.00016075     -1101.0327091508 -4.91E-03
     3 OT DIIS     0.15E+00    0.8     0.00009050     -1101.0362863174 -3.58E-03
     4 OT DIIS     0.15E+00    0.8     0.00006199     -1101.0377277257 -1.44E-03
     5 OT DIIS     0.15E+00    0.8     0.00003797     -1101.0386877894 -9.60E-04
     6 OT DIIS     0.15E+00    0.8     0.00002205     -1101.0391017619 -4.14E-04
     7 OT DIIS     0.15E+00    0.8     0.00001260     -1101.0392355450 -1.34E-04
     8 OT DIIS     0.15E+00    0.8     0.00000723     -1101.0392767826 -4.12E-05

  *** SCF run converged in     8 steps ***


  Electronic density on regular grids:       -512.0000014905       -0.0000014905
  Core density on regular grids:              511.9999999975       -0.0000000025
  Total charge density on r-space grids:       -0.0000014931
  Total charge density g-space grids:          -0.0000014931

  Overlap energy of the core charge distribution:               0.00000554074590
  Self energy of the core charge distribution:              -2805.30499493854950
  Core Hamiltonian energy:                                    824.99709670366747
  Hartree energy:                                            1145.47089243721166
  Exchange-correlation energy:                               -266.20227652568695

  Total energy:                                             -1101.03927678261152

 ENERGY| Total FORCE_EVAL ( QS ) energy (a.u.):            -1101.039289563984767


 *******************************************************************************
 ENSEMBLE TYPE                =                                              NVE
 STEP NUMBER                  =                                                1
 TIME [fs]                    =                                         0.500000
 CONSERVED QUANTITY [hartree] =                              -0.110076554067E+04

                                              INSTANTANEOUS             AVERAGES
 CPU TIME [s]                 =                       49.72                49.72
 ENERGY DRIFT PER ATOM [K]    =         -0.110545477255E+02   0.000000000000E+00
 POTENTIAL ENERGY[hartree]    =         -0.110103928956E+04  -0.110103928956E+04
 KINETIC ENERGY [hartree]     =          0.273748891513E+00   0.273748891513E+00
 TEMPERATURE [K]              =                     301.721              301.721
 *******************************************************************************


 Number of electrons:                                                        512
 Number of occupied orbitals:                                                256
 Number of molecular orbitals:                                               256

 Number of orbital functions:                                               2560
 Number of independent orbital functions:                                   2560

 Extrapolation method: PS Nth order


 SCF WAVEFUNCTION OPTIMIZATION

  ----------------------------------- OT ---------------------------------------
  Minimizer      : DIIS                : direct inversion
                                         in the iterative subspace
                                         using   7 DIIS vectors
                                         safer DIIS on
  Preconditioner : FULL_KINETIC        : inversion of T + eS
  Precond_solver : DEFAULT
  stepsize       :    0.15000000                  energy_gap     :    0.20000000
  eps_taylor     :   0.10000E-15                  max_taylor     :             4
  ----------------------------------- OT ---------------------------------------

  Step     Update method      Time    Convergence         Total energy    Change
  ------------------------------------------------------------------------------
     1 OT DIIS     0.15E+00    0.7     0.00018187     -1101.0453213821 -1.10E+03
     2 OT DIIS     0.15E+00    0.8     0.00012503     -1101.0480054191 -2.68E-03
     3 OT DIIS     0.15E+00    0.8     0.00007517     -1101.0503828145 -2.38E-03
     4 OT DIIS     0.15E+00    0.8     0.00005150     -1101.0514777106 -1.09E-03
     5 OT DIIS     0.15E+00    0.8     0.00002882     -1101.0522243706 -7.47E-04
     6 OT DIIS     0.15E+00    0.8     0.00001712     -1101.0524515284 -2.27E-04
     7 OT DIIS     0.15E+00    0.8     0.00000972     -1101.0525297372 -7.82E-05

  *** SCF run converged in     7 steps ***


  Electronic density on regular grids:       -512.0000014194       -0.0000014194
  Core density on regular grids:              511.9999999954       -0.0000000046
  Total charge density on r-space grids:       -0.0000014240
  Total charge density g-space grids:          -0.0000014240

  Overlap energy of the core charge distribution:               0.00000508717620
  Self energy of the core charge distribution:              -2805.30499493854950
  Core Hamiltonian energy:                                    823.99099498803696
  Hartree energy:                                            1146.19319011611879
  Exchange-correlation energy:                               -265.93172499002162

  Total energy:                                             -1101.05252973723896

 ENERGY| Total FORCE_EVAL ( QS ) energy (a.u.):            -1101.052553905902641


 *******************************************************************************
 ENSEMBLE TYPE                =                                              NVE
 STEP NUMBER                  =                                                2
 TIME [fs]                    =                                         1.000000
 CONSERVED QUANTITY [hartree] =                              -0.110076574941E+04

                                              INSTANTANEOUS             AVERAGES
 CPU TIME [s]                 =                        6.96                28.34
 ENERGY DRIFT PER ATOM [K]    =         -0.113978549700E+02  -0.569892748498E+01
 POTENTIAL ENERGY[hartree]    =         -0.110105255391E+04  -0.110104592173E+04
 KINETIC ENERGY [hartree]     =          0.286804492826E+00   0.280276692169E+00
 TEMPERATURE [K]              =                     316.110              308.915
 *******************************************************************************


 Number of electrons:                                                        512
 Number of occupied orbitals:                                                256
 Number of molecular orbitals:                                               256

 Number of orbital functions:                                               2560
 Number of independent orbital functions:                                   2560

 Extrapolation method: PS Nth order


 SCF WAVEFUNCTION OPTIMIZATION

  ----------------------------------- OT ---------------------------------------
  Minimizer      : DIIS                : direct inversion
                                         in the iterative subspace
                                         using   7 DIIS vectors
                                         safer DIIS on
  Preconditioner : FULL_KINETIC        : inversion of T + eS
  Precond_solver : DEFAULT
  stepsize       :    0.15000000                  energy_gap     :    0.20000000
  eps_taylor     :   0.10000E-15                  max_taylor     :             4
  ----------------------------------- OT ---------------------------------------

  Step     Update method      Time    Convergence         Total energy    Change
  ------------------------------------------------------------------------------
     1 OT DIIS     0.15E+00    0.7     0.00016599     -1101.0673401808 -1.10E+03
     2 OT DIIS     0.15E+00    0.8     0.00011755     -1101.0696106474 -2.27E-03
     3 OT DIIS     0.15E+00    0.8     0.00007010     -1101.0718403937 -2.23E-03
     4 OT DIIS     0.15E+00    0.8     0.00004686     -1101.0728159792 -9.76E-04
     5 OT DIIS     0.15E+00    0.8     0.00002506     -1101.0734352745 -6.19E-04
     6 OT DIIS     0.15E+00    0.8     0.00001526     -1101.0735929641 -1.58E-04
     7 OT DIIS     0.15E+00    0.8     0.00000857     -1101.0736544803 -6.15E-05

  *** SCF run converged in     7 steps ***


  Electronic density on regular grids:       -512.0000013333       -0.0000013333
  Core density on regular grids:              511.9999999979       -0.0000000021
  Total charge density on r-space grids:       -0.0000013354
  Total charge density g-space grids:          -0.0000013354

  Overlap energy of the core charge distribution:               0.00000421676059
  Self energy of the core charge distribution:              -2805.30499493854950
  Core Hamiltonian energy:                                    822.43891721578848
  Hartree energy:                                            1147.30180931054883
  Exchange-correlation energy:                               -265.50939028486818

  Total energy:                                             -1101.07365448031965

 ENERGY| Total FORCE_EVAL ( QS ) energy (a.u.):            -1101.073673404312103


 *******************************************************************************
 ENSEMBLE TYPE                =                                              NVE
 STEP NUMBER                  =                                                3
 TIME [fs]                    =                                         1.500000
 CONSERVED QUANTITY [hartree] =                              -0.110076623801E+04

                                              INSTANTANEOUS             AVERAGES
 CPU TIME [s]                 =                        6.98                21.22
 ENERGY DRIFT PER ATOM [K]    =         -0.122014235759E+02  -0.786642618194E+01
 POTENTIAL ENERGY[hartree]    =         -0.110107367340E+04  -0.110105517229E+04
 KINETIC ENERGY [hartree]     =          0.307435398585E+00   0.289329594308E+00
 TEMPERATURE [K]              =                     338.849              318.893
 *******************************************************************************


 Number of electrons:                                                        512
 Number of occupied orbitals:                                                256
 Number of molecular orbitals:                                               256

 Number of orbital functions:                                               2560
 Number of independent orbital functions:                                   2560

 Extrapolation method: PS Nth order


 SCF WAVEFUNCTION OPTIMIZATION

  ----------------------------------- OT ---------------------------------------
  Minimizer      : DIIS                : direct inversion
                                         in the iterative subspace
                                         using   7 DIIS vectors
                                         safer DIIS on
  Preconditioner : FULL_KINETIC        : inversion of T + eS
  Precond_solver : DEFAULT
  stepsize       :    0.15000000                  energy_gap     :    0.20000000
  eps_taylor     :   0.10000E-15                  max_taylor     :             4
  ----------------------------------- OT ---------------------------------------

  Step     Update method      Time    Convergence         Total energy    Change
  ------------------------------------------------------------------------------
     1 OT DIIS     0.15E+00    0.7     0.00016900     -1101.0882815791 -1.10E+03
     2 OT DIIS     0.15E+00    0.8     0.00012004     -1101.0906392119 -2.36E-03
     3 OT DIIS     0.15E+00    0.8     0.00006991     -1101.0929761671 -2.34E-03
     4 OT DIIS     0.15E+00    0.8     0.00004370     -1101.0939498196 -9.74E-04
     5 OT DIIS     0.15E+00    0.8     0.00002172     -1101.0944515377 -5.02E-04
     6 OT DIIS     0.15E+00    0.8     0.00001364     -1101.0945537971 -1.02E-04
     7 OT DIIS     0.15E+00    0.8     0.00000750     -1101.0946004838 -4.67E-05

  *** SCF run converged in     7 steps ***


  Electronic density on regular grids:       -512.0000012177       -0.0000012177
  Core density on regular grids:              512.0000000002        0.0000000002
  Total charge density on r-space grids:       -0.0000012176
  Total charge density g-space grids:          -0.0000012176

  Overlap energy of the core charge distribution:               0.00000308048338
  Self energy of the core charge distribution:              -2805.30499493854950
  Core Hamiltonian energy:                                    820.48664268916127
  Hartree energy:                                            1148.70443612235044
  Exchange-correlation energy:                               -264.98068743720512

  Total energy:                                             -1101.09460048375922

 ENERGY| Total FORCE_EVAL ( QS ) energy (a.u.):            -1101.094614859844569


 *******************************************************************************
 ENSEMBLE TYPE                =                                              NVE
 STEP NUMBER                  =                                                4
 TIME [fs]                    =                                         2.000000
 CONSERVED QUANTITY [hartree] =                              -0.110076681835E+04

                                              INSTANTANEOUS             AVERAGES
 CPU TIME [s]                 =                        7.04                17.67
 ENERGY DRIFT PER ATOM [K]    =         -0.131558942715E+02  -0.918879320433E+01
 POTENTIAL ENERGY[hartree]    =         -0.110109461486E+04  -0.110106503293E+04
 KINETIC ENERGY [hartree]     =          0.327796508688E+00   0.298946322903E+00
 TEMPERATURE [K]              =                     361.291              329.493
 *******************************************************************************


 Number of electrons:                                                        512
 Number of occupied orbitals:                                                256
 Number of molecular orbitals:                                               256

 Number of orbital functions:                                               2560
 Number of independent orbital functions:                                   2560

 Extrapolation method: PS Nth order


 SCF WAVEFUNCTION OPTIMIZATION

  ----------------------------------- OT ---------------------------------------
  Minimizer      : DIIS                : direct inversion
                                         in the iterative subspace
                                         using   7 DIIS vectors
                                         safer DIIS on
  Preconditioner : FULL_KINETIC        : inversion of T + eS
  Precond_solver : DEFAULT
  stepsize       :    0.15000000                  energy_gap     :    0.20000000
  eps_taylor     :   0.10000E-15                  max_taylor     :             4
  ----------------------------------- OT ---------------------------------------

  Step     Update method      Time    Convergence         Total energy    Change
  ------------------------------------------------------------------------------
     1 OT DIIS     0.15E+00    0.7     0.00006426     -1101.1044110237 -1.10E+03
     2 OT DIIS     0.15E+00    0.8     0.00005315     -1101.1047787984 -3.68E-04
     3 OT DIIS     0.15E+00    0.8     0.00003232     -1101.1054483798 -6.70E-04
     4 OT DIIS     0.15E+00    0.8     0.00002194     -1101.1057147872 -2.66E-04
     5 OT DIIS     0.15E+00    0.8     0.00001212     -1101.1058730945 -1.58E-04
     6 OT DIIS     0.15E+00    0.8     0.00000783     -1101.1059135973 -4.05E-05

  *** SCF run converged in     6 steps ***


  Electronic density on regular grids:       -512.0000010688       -0.0000010688
  Core density on regular grids:              511.9999999989       -0.0000000011
  Total charge density on r-space grids:       -0.0000010699
  Total charge density g-space grids:          -0.0000010699

  Overlap energy of the core charge distribution:               0.00000200945111
  Self energy of the core charge distribution:              -2805.30499493854950
  Core Hamiltonian energy:                                    818.39013739172469
  Hartree energy:                                            1150.21806252092233
  Exchange-correlation energy:                               -264.40912058081426

  Total energy:                                             -1101.10591359726550

 ENERGY| Total FORCE_EVAL ( QS ) energy (a.u.):            -1101.105932128858740


 *******************************************************************************
 ENSEMBLE TYPE                =                                              NVE
 STEP NUMBER                  =                                                5
 TIME [fs]                    =                                         2.500000
 CONSERVED QUANTITY [hartree] =                              -0.110076715532E+04

                                              INSTANTANEOUS             AVERAGES
 CPU TIME [s]                 =                        6.25                15.39
 ENERGY DRIFT PER ATOM [K]    =         -0.137100852029E+02  -0.100930516040E+02
 POTENTIAL ENERGY[hartree]    =         -0.110110593213E+04  -0.110107321277E+04
 KINETIC ENERGY [hartree]     =          0.338776813796E+00   0.306912421081E+00
 TEMPERATURE [K]              =                     373.393              338.273
 *******************************************************************************


 Number of electrons:                                                        512
 Number of occupied orbitals:                                                256
 Number of molecular orbitals:                                               256

 Number of orbital functions:                                               2560
 Number of independent orbital functions:                                   2560

 Extrapolation method: PS Nth order


 SCF WAVEFUNCTION OPTIMIZATION

  ----------------------------------- OT ---------------------------------------
  Minimizer      : DIIS                : direct inversion
                                         in the iterative subspace
                                         using   7 DIIS vectors
                                         safer DIIS on
  Preconditioner : FULL_KINETIC        : inversion of T + eS
  Precond_solver : DEFAULT
  stepsize       :    0.15000000                  energy_gap     :    0.20000000
  eps_taylor     :   0.10000E-15                  max_taylor     :             4
  ----------------------------------- OT ---------------------------------------

  Step     Update method      Time    Convergence         Total energy    Change
  ------------------------------------------------------------------------------
     1 OT DIIS     0.15E+00    0.7     0.00004706     -1101.1011339815 -1.10E+03
     2 OT DIIS     0.15E+00    0.8     0.00003814     -1101.1013293809 -1.95E-04
     3 OT DIIS     0.15E+00    0.8     0.00002079     -1101.1016568934 -3.28E-04
     4 OT DIIS     0.15E+00    0.8     0.00001223     -1101.1017643462 -1.07E-04
     5 OT DIIS     0.15E+00    0.8     0.00000730     -1101.1018023382 -3.80E-05

  *** SCF run converged in     5 steps ***


  Electronic density on regular grids:       -512.0000009008       -0.0000009008
  Core density on regular grids:              511.9999999941       -0.0000000059
  Total charge density on r-space grids:       -0.0000009067
  Total charge density g-space grids:          -0.0000009067

  Overlap energy of the core charge distribution:               0.00000123724779
  Self energy of the core charge distribution:              -2805.30499493854950
  Core Hamiltonian energy:                                    816.35636953445101
  Hartree energy:                                            1151.70037309178952
  Exchange-correlation energy:                               -263.85355126310617

  Total energy:                                             -1101.10180233816709

 ENERGY| Total FORCE_EVAL ( QS ) energy (a.u.):            -1101.101815178019478


 *******************************************************************************
 ENSEMBLE TYPE                =                                              NVE
 STEP NUMBER                  =                                                6
 TIME [fs]                    =                                         3.000000
 CONSERVED QUANTITY [hartree] =                              -0.110076702437E+04

                                              INSTANTANEOUS             AVERAGES
 CPU TIME [s]                 =                        5.45                13.73
 ENERGY DRIFT PER ATOM [K]    =         -0.134947243649E+02  -0.106599970642E+02
 POTENTIAL ENERGY[hartree]    =         -0.110110181518E+04  -0.110107797984E+04
 KINETIC ENERGY [hartree]     =          0.334790808494E+00   0.311558818984E+00
 TEMPERATURE [K]              =                     369.000              343.394
 *******************************************************************************


 Number of electrons:                                                        512
 Number of occupied orbitals:                                                256
 Number of molecular orbitals:                                               256

 Number of orbital functions:                                               2560
 Number of independent orbital functions:                                   2560

 Extrapolation method: PS Nth order


 SCF WAVEFUNCTION OPTIMIZATION

  ----------------------------------- OT ---------------------------------------
  Minimizer      : DIIS                : direct inversion
                                         in the iterative subspace
                                         using   7 DIIS vectors
                                         safer DIIS on
  Preconditioner : FULL_KINETIC        : inversion of T + eS
  Precond_solver : DEFAULT
  stepsize       :    0.15000000                  energy_gap     :    0.20000000
  eps_taylor     :   0.10000E-15                  max_taylor     :             4
  ----------------------------------- OT ---------------------------------------

  Step     Update method      Time    Convergence         Total energy    Change
  ------------------------------------------------------------------------------
     1 OT DIIS     0.15E+00    0.7     0.00004011     -1101.0829342809 -1.10E+03
     2 OT DIIS     0.15E+00    0.8     0.00003295     -1101.0830775657 -1.43E-04
     3 OT DIIS     0.15E+00    0.8     0.00001490     -1101.0833518754 -2.74E-04
     4 OT DIIS     0.15E+00    0.8     0.00000897     -1101.0834071080 -5.52E-05

  *** SCF run converged in     4 steps ***


  Electronic density on regular grids:       -512.0000007415       -0.0000007415
  Core density on regular grids:              511.9999999906       -0.0000000094
  Total charge density on r-space grids:       -0.0000007508
  Total charge density g-space grids:          -0.0000007508

  Overlap energy of the core charge distribution:               0.00000077877949
  Self energy of the core charge distribution:              -2805.30499493854950
  Core Hamiltonian energy:                                    814.58618751199458
  Hartree energy:                                            1153.00177219568332
  Exchange-correlation energy:                               -263.36637265589206

  Total energy:                                             -1101.08340710798439

 ENERGY| Total FORCE_EVAL ( QS ) energy (a.u.):            -1101.083423184811409


 *******************************************************************************
 ENSEMBLE TYPE                =                                              NVE
 STEP NUMBER                  =                                                7
 TIME [fs]                    =                                         3.500000
 CONSERVED QUANTITY [hartree] =                              -0.110076647588E+04

                                              INSTANTANEOUS             AVERAGES
 CPU TIME [s]                 =                        4.67                12.44
 ENERGY DRIFT PER ATOM [K]    =         -0.125926397369E+02  -0.109360888746E+02
 POTENTIAL ENERGY[hartree]    =         -0.110108342318E+04  -0.110107875746E+04
 KINETIC ENERGY [hartree]     =          0.316947308491E+00   0.312328603199E+00
 TEMPERATURE [K]              =                     349.333              344.242
 *******************************************************************************


 Number of electrons:                                                        512
 Number of occupied orbitals:                                                256
 Number of molecular orbitals:                                               256

 Number of orbital functions:                                               2560
 Number of independent orbital functions:                                   2560

 Extrapolation method: PS Nth order


 SCF WAVEFUNCTION OPTIMIZATION

  ----------------------------------- OT ---------------------------------------
  Minimizer      : DIIS                : direct inversion
                                         in the iterative subspace
                                         using   7 DIIS vectors
                                         safer DIIS on
  Preconditioner : FULL_KINETIC        : inversion of T + eS
  Precond_solver : DEFAULT
  stepsize       :    0.15000000                  energy_gap     :    0.20000000
  eps_taylor     :   0.10000E-15                  max_taylor     :             4
  ----------------------------------- OT ---------------------------------------

  Step     Update method      Time    Convergence         Total energy    Change
  ------------------------------------------------------------------------------
     1 OT DIIS     0.15E+00    0.7     0.00003934     -1101.0575993375 -1.10E+03
     2 OT DIIS     0.15E+00    0.8     0.00003220     -1101.0577372339 -1.38E-04
     3 OT DIIS     0.15E+00    0.8     0.00001302     -1101.0580145434 -2.77E-04
     4 OT DIIS     0.15E+00    0.8     0.00000937     -1101.0580508352 -3.63E-05

  *** SCF run converged in     4 steps ***


  Electronic density on regular grids:       -512.0000006088       -0.0000006088
  Core density on regular grids:              511.9999999927       -0.0000000073
  Total charge density on r-space grids:       -0.0000006162
  Total charge density g-space grids:          -0.0000006162

  Overlap energy of the core charge distribution:               0.00000054143077
  Self energy of the core charge distribution:              -2805.30499493854950
  Core Hamiltonian energy:                                    813.21035139301284
  Hartree energy:                                            1154.02258427294123
  Exchange-correlation energy:                               -262.98599210403438

  Total energy:                                             -1101.05805083519908

 ENERGY| Total FORCE_EVAL ( QS ) energy (a.u.):            -1101.058072647108929


 *******************************************************************************
 ENSEMBLE TYPE                =                                              NVE
 STEP NUMBER                  =                                                8
 TIME [fs]                    =                                         4.000000
 CONSERVED QUANTITY [hartree] =                              -0.110076580471E+04

                                              INSTANTANEOUS             AVERAGES
 CPU TIME [s]                 =                        4.67                11.47
 ENERGY DRIFT PER ATOM [K]    =         -0.114888012936E+02  -0.110051779269E+02
 POTENTIAL ENERGY[hartree]    =         -0.110105807265E+04  -0.110107617186E+04
 KINETIC ENERGY [hartree]     =          0.292267936072E+00   0.309821019808E+00
 TEMPERATURE [K]              =                     322.132              341.479
 *******************************************************************************


 Number of electrons:                                                        512
 Number of occupied orbitals:                                                256
 Number of molecular orbitals:                                               256

 Number of orbital functions:                                               2560
 Number of independent orbital functions:                                   2560

 Extrapolation method: PS Nth order


 SCF WAVEFUNCTION OPTIMIZATION

  ----------------------------------- OT ---------------------------------------
  Minimizer      : DIIS                : direct inversion
                                         in the iterative subspace
                                         using   7 DIIS vectors
                                         safer DIIS on
  Preconditioner : FULL_KINETIC        : inversion of T + eS
  Precond_solver : DEFAULT
  stepsize       :    0.15000000                  energy_gap     :    0.20000000
  eps_taylor     :   0.10000E-15                  max_taylor     :             4
  ----------------------------------- OT ---------------------------------------

  Step     Update method      Time    Convergence         Total energy    Change
  ------------------------------------------------------------------------------
     1 OT DIIS     0.15E+00    0.7     0.00004063     -1101.0348904328 -1.10E+03
     2 OT DIIS     0.15E+00    0.8     0.00003307     -1101.0350368939 -1.46E-04
     3 OT DIIS     0.15E+00    0.8     0.00001525     -1101.0353096358 -2.73E-04
     4 OT DIIS     0.15E+00    0.8     0.00001093     -1101.0353590214 -4.94E-05
     5 OT DIIS     0.15E+00    0.8     0.00000786     -1101.0353880728 -2.91E-05

  *** SCF run converged in     5 steps ***


  Electronic density on regular grids:       -512.0000004818       -0.0000004818
  Core density on regular grids:              511.9999999968       -0.0000000032
  Total charge density on r-space grids:       -0.0000004851
  Total charge density g-space grids:          -0.0000004851

  Overlap energy of the core charge distribution:               0.00000043858940
  Self energy of the core charge distribution:              -2805.30499493854950
  Core Hamiltonian energy:                                    812.31303126913747
  Hartree energy:                                            1154.69416749630773
  Exchange-correlation energy:                               -262.73759233824671

  Total energy:                                             -1101.03538807276186

 ENERGY| Total FORCE_EVAL ( QS ) energy (a.u.):            -1101.035410333149002


 *******************************************************************************
 ENSEMBLE TYPE                =                                              NVE
 STEP NUMBER                  =                                                9
 TIME [fs]                    =                                         4.500000
 CONSERVED QUANTITY [hartree] =                              -0.110076529419E+04

                                              INSTANTANEOUS             AVERAGES
 CPU TIME [s]                 =                        5.44                10.80
 ENERGY DRIFT PER ATOM [K]    =         -0.106491652636E+02  -0.109656209643E+02
 POTENTIAL ENERGY[hartree]    =         -0.110103541033E+04  -0.110107164280E+04
 KINETIC ENERGY [hartree]     =          0.270116144786E+00   0.305409367028E+00
 TEMPERATURE [K]              =                     297.717              336.616
 *******************************************************************************


 Number of electrons:                                                        512
 Number of occupied orbitals:                                                256
 Number of molecular orbitals:                                               256

 Number of orbital functions:                                               2560
 Number of independent orbital functions:                                   2560

 Extrapolation method: PS Nth order


 SCF WAVEFUNCTION OPTIMIZATION

  ----------------------------------- OT ---------------------------------------
  Minimizer      : DIIS                : direct inversion
                                         in the iterative subspace
                                         using   7 DIIS vectors
                                         safer DIIS on
  Preconditioner : FULL_KINETIC        : inversion of T + eS
  Precond_solver : DEFAULT
  stepsize       :    0.15000000                  energy_gap     :    0.20000000
  eps_taylor     :   0.10000E-15                  max_taylor     :             4
  ----------------------------------- OT ---------------------------------------

  Step     Update method      Time    Convergence         Total energy    Change
  ------------------------------------------------------------------------------
     1 OT DIIS     0.15E+00    0.7     0.00004272     -1101.0227185823 -1.10E+03
     2 OT DIIS     0.15E+00    0.8     0.00003547     -1101.0228816341 -1.63E-04
     3 OT DIIS     0.15E+00    0.8     0.00001954     -1101.0231905787 -3.09E-04
     4 OT DIIS     0.15E+00    0.8     0.00001351     -1101.0232865832 -9.60E-05
     5 OT DIIS     0.15E+00    0.8     0.00000909     -1101.0233423692 -5.58E-05

  *** SCF run converged in     5 steps ***


  Electronic density on regular grids:       -512.0000003316       -0.0000003316
  Core density on regular grids:              511.9999999981       -0.0000000019
  Total charge density on r-space grids:       -0.0000003335
  Total charge density g-space grids:          -0.0000003335

  Overlap energy of the core charge distribution:               0.00000042270337
  Self energy of the core charge distribution:              -2805.30499493854950
  Core Hamiltonian energy:                                    811.91272338368015
  Hartree energy:                                            1154.99784951710490
  Exchange-correlation energy:                               -262.62892075412447

  Total energy:                                             -1101.02334236918523

 ENERGY| Total FORCE_EVAL ( QS ) energy (a.u.):            -1101.023374986881208


 *******************************************************************************
 ENSEMBLE TYPE                =                                              NVE
 STEP NUMBER                  =                                               10
 TIME [fs]                    =                                         5.000000
 CONSERVED QUANTITY [hartree] =                              -0.110076505584E+04

                                              INSTANTANEOUS             AVERAGES
 CPU TIME [s]                 =                        5.44                10.26
 ENERGY DRIFT PER ATOM [K]    =         -0.102571583438E+02  -0.108947747023E+02
 POTENTIAL ENERGY[hartree]    =         -0.110102337499E+04  -0.110106681602E+04
 KINETIC ENERGY [hartree]     =          0.258319149916E+00   0.300700345316E+00
 TEMPERATURE [K]              =                     284.714              331.426
 *******************************************************************************


 -------------------------------------------------------------------------------
 -                                                                             -
 -                                DBCSR STATISTICS                             -
 -                                                                             -
 -------------------------------------------------------------------------------
 COUNTER                                    TOTAL       BLAS       SMM       ACC
 flops    9 x   32 x   32               207618048     100.0%      0.0%      0.0%
 flops   22 x   32 x   32               253755392     100.0%      0.0%      0.0%
 flops   64 x   64 x   64             26877100032     100.0%      0.0%      0.0%
 flops    9 x    9 x   64             44168260608     100.0%      0.0%      0.0%
 flops   22 x    9 x   64             53835724800     100.0%      0.0%      0.0%
 flops    9 x   22 x   64             53885500416     100.0%      0.0%      0.0%
 flops   22 x   22 x   64             67007283200     100.0%      0.0%      0.0%
 flops   64 x   64 x  640            141264158720     100.0%      0.0%      0.0%
 flops  640 x   64 x   64            173811957760     100.0%      0.0%      0.0%
 flops    9 x   32 x    9            185405884416     100.0%      0.0%      0.0%
 flops    9 x   32 x   22            227871249408     100.0%      0.0%      0.0%
 flops   22 x   32 x    9            227871249408     100.0%      0.0%      0.0%
 flops   22 x   32 x   22            279130931200     100.0%      0.0%      0.0%
 flops  640 x   64 x  640            399297740800     100.0%      0.0%      0.0%
 flops total                         1.880888E+12     100.0%      0.0%      0.0%
 flops max/rank                    117.977176E+09     100.0%      0.0%      0.0%
 matmuls inhomo. stacks                         0       0.0%      0.0%      0.0%
 matmuls total                           90468644     100.0%      0.0%      0.0%
 number of processed stacks                292888     100.0%      0.0%      0.0%
 average stack size                                   308.9       0.0       0.0
 marketing flops                     2.107587E+12
 -------------------------------------------------------------------------------
 # multiplications                           2286
 max memory usage/rank             213.901312E+06
 # max total images/rank                        1
 # MPI messages exchanged                  219456
 # MPI messages filtered                        0
 MPI messages size (elements):
  total size                        12.130314E+09
  min size                           0.000000E+00
  max size                         409.600000E+03
  average size                      55.274469E+03
 MPI breakdown and total messages size (bytes):
             size <=      128                1452                        0
       128 < size <=     8192                   0                        0
      8192 < size <=    32768              101892               3336634368
     32768 < size <=   131072                   0                        0
    131072 < size <=  4194304              116112              93705670464
   4194304 < size <= 16777216                   0                        0
  16777216 < size                               0                        0
 -------------------------------------------------------------------------------
 
 MEMORY| Estimated peak process memory [MiB]                                 204

 -------------------------------------------------------------------------------
 -                                                                             -
 -                         MESSAGE PASSING PERFORMANCE                         -
 -                                                                             -
 -------------------------------------------------------------------------------

 ROUTINE             CALLS  TOT TIME [s]  AVE VOLUME [Bytes]  PERFORMANCE [MB/s]
 MP_Group                5         0.000
 MP_Bcast             3630         0.007              51745.            26407.29
 MP_Allreduce        15216         1.138                240.                3.21
 MP_Sync                54         0.001
 MP_Alltoall         10248         2.112             620221.             3009.06
 MP_ISendRecv        10710         0.093              94533.            10936.02
 MP_Wait            126418         3.999
 MP_comm_split          50         0.008
 MP_ISend            41732         0.140             175106.            52281.29
 MP_IRecv            41732         0.283             175082.            25862.51
 MP_Memory           93480         0.046
 -------------------------------------------------------------------------------


 -------------------------------------------------------------------------------
 -                                                                             -
 -                           R E F E R E N C E S                               -
 -                                                                             -
 -------------------------------------------------------------------------------
 
 CP2K version 4.1, the CP2K developers group (2016).
 CP2K is freely available from https://www.cp2k.org/ .

 Schuett, Ole; Messmer, Peter; Hutter, Juerg; VandeVondele, Joost. 
 Electronic Structure Calculations on Graphics Processing Units, John Wiley & Sons, Ltd, 173-190 (2016). 
 GPU-Accelerated Sparse Matrix-Matrix Multiplication for Linear Scaling Density Functional Theory.
 http://dx.doi.org/10.1002/9781118670712.ch8


 Borstnik, U; VandeVondele, J; Weber, V; Hutter, J. 
 PARALLEL COMPUTING, 40 (5-6), 47-58 (2014). 
 Sparse matrix multiplication: The distributed block-compressed sparse
 row library.
 http://dx.doi.org/10.1016/j.parco.2014.03.012


 Hutter, J; Iannuzzi, M; Schiffmann, F; VandeVondele, J. 
 WILEY INTERDISCIPLINARY REVIEWS-COMPUTATIONAL MOLECULAR SCIENCE, 4 (1), 15-25 (2014). 
 CP2K: atomistic simulations of condensed matter systems.
 http://dx.doi.org/10.1002/wcms.1159


 Krack, M. 
 THEORETICAL CHEMISTRY ACCOUNTS, 114 (1-3), 145-152 (2005). 
 Pseudopotentials for H to Kr optimized for gradient-corrected
 exchange-correlation functionals.
 http://dx.doi.org/10.1007/s00214-005-0655-y


 VandeVondele, J; Krack, M; Mohamed, F; Parrinello, M; Chassaing, T;
 Hutter, J. COMPUTER PHYSICS COMMUNICATIONS, 167 (2), 103-128 (2005). 
 QUICKSTEP: Fast and accurate density functional calculations using a
 mixed Gaussian and plane waves approach.
 http://dx.doi.org/10.1016/j.cpc.2004.12.014


 Frigo, M; Johnson, SG. 
 PROCEEDINGS OF THE IEEE, 93 (2), 216-231 (2005). 
 The design and implementation of FFTW3.
 http://dx.doi.org/10.1109/JPROC.2004.840301


 VandeVondele, J; Hutter, J. 
 JOURNAL OF CHEMICAL PHYSICS, 118 (10), 4365-4369 (2003). 
 An efficient orbital transformation method for electronic structure
 calculations.
 http://dx.doi.org/10.1063/1.1543154


 Hartwigsen, C; Goedecker, S; Hutter, J. 
 PHYSICAL REVIEW B, 58 (7), 3641-3662 (1998). 
 Relativistic separable dual-space Gaussian pseudopotentials from H to Rn.
 http://dx.doi.org/10.1103/PhysRevB.58.3641


 Lippert, G; Hutter, J; Parrinello, M. 
 MOLECULAR PHYSICS, 92 (3), 477-487 (1997). 
 A hybrid Gaussian and plane wave density functional scheme.
 http://dx.doi.org/10.1080/002689797170220


 Goedecker, S; Teter, M; Hutter, J. 
 PHYSICAL REVIEW B, 54 (3), 1703-1710 (1996). 
 Separable dual-space Gaussian pseudopotentials.
 http://dx.doi.org/10.1103/PhysRevB.54.1703


 -------------------------------------------------------------------------------
 -                                                                             -
 -                                T I M I N G                                  -
 -                                                                             -
 -------------------------------------------------------------------------------
 SUBROUTINE                       CALLS  ASD         SELF TIME        TOTAL TIME
                                MAXIMUM       AVERAGE  MAXIMUM  AVERAGE  MAXIMUM
 CP2K                                 1  1.0    0.026    0.032  102.987  102.989
 qs_mol_dyn_low                       1  2.0    0.009    0.012  102.636  102.641
 qs_forces                           11  3.9    0.004    0.007  102.562  102.564
 qs_energies                         11  4.9    0.002    0.005   95.051   95.057
 scf_env_do_scf                      11  5.9    0.001    0.003   88.010   88.011
 scf_env_do_scf_inner_loop          108  6.5    0.004    0.009   81.920   81.922
 velocity_verlet                     10  3.0    0.002    0.003   60.600   60.604
 rebuild_ks_matrix                  119  8.3    0.001    0.001   47.418   47.431
 qs_ks_build_kohn_sham_matrix       119  9.3    0.015    0.017   47.418   47.430
 qs_ks_update_qs_env                119  7.6    0.001    0.002   42.580   42.590
 sum_up_and_integrate               119 10.3    0.101    0.107   40.831   40.869
 integrate_v_rspace                 119 11.3   35.906   36.526   40.729   40.773
 qs_rho_update_rho                  119  7.7    0.001    0.001   35.171   35.213
 calculate_rho_elec                 119  8.7   28.820   29.481   35.171   35.213
 dbcsr_multiply_generic            2286 12.5    0.067    0.070   15.482   15.665
 qs_scf_new_mos                     108  7.5    0.001    0.001   11.712   11.764
 qs_scf_loop_do_ot                  108  8.5    0.001    0.002   11.711   11.763
 multiply_cannon                   2286 13.5    0.143    0.150   11.541   11.752
 ot_scf_mini                        108  9.5    0.005    0.006   10.514   10.522
 multiply_cannon_multrec           9144 14.5    7.713    7.903    7.724    7.914
 pw_transfer                       1439 11.6    0.056    0.063    6.465    7.021
 fft_wrap_pw1pw2                   1201 12.6    0.006    0.007    6.305    6.860
 fft_wrap_pw1pw2_140                487 13.2    0.400    0.436    5.625    6.173
 init_scf_loop                       11  6.9    0.001    0.001    6.075    6.076
 fft3d_ps                          1201 14.6    3.968    4.714    5.149    5.800
 density_rs2pw                      119  9.7    0.003    0.003    5.077    5.639
 ot_mini                            108 10.5    0.001    0.002    5.340    5.348
 qs_ks_update_qs_env_forces          11  4.9    0.000    0.000    4.995    4.997
 init_scf_run                        11  5.9    0.000    0.001    4.834    4.836
 scf_env_initial_rho_setup           11  6.9    0.002    0.006    4.834    4.835
 wfi_extrapolate                     11  7.9    0.002    0.003    4.318    4.319
 rs_pw_transfer                     974 11.9    0.007    0.007    3.661    4.072
 mp_waitall_1                    121218 16.0    3.728    4.036    3.728    4.036
 potential_pw2rs                    119 12.3    0.008    0.008    3.329    3.352
 make_m2s                          4572 13.5    0.063    0.065    3.089    3.197
 qs_ot_get_derivative               108 11.5    0.002    0.002    2.668    2.676
 ot_diis_step                       108 11.5    0.005    0.005    2.665    2.665
 apply_preconditioner_dbcsr         119 12.6    0.000    0.000    2.541    2.660
 apply_single                       119 13.6    0.001    0.001    2.540    2.660
 make_images                       4572 14.5    0.317    0.324    2.485    2.554
 build_core_hamiltonian_matrix_      11  4.9    0.000    0.000    2.395    2.500
 multiply_cannon_metrocomm1        9144 14.5    0.015    0.016    2.099    2.319
 rs_distribute_matrix               249 10.9    0.445    0.485    1.655    2.273
 qs_energies_init_hamiltonians       11  5.9    0.002    0.003    1.957    1.958
 mp_alltoall_d11v                  2141 13.8    1.087    1.829    1.087    1.829
 rs_pw_transfer_RS2PW_140           130 11.5    0.465    0.491    1.351    1.745
 build_core_ppl_forces               11  5.9    1.438    1.586    1.438    1.586
 qs_ot_get_p                        119 10.4    0.003    0.004    1.436    1.448
 mp_waitany                        5200 13.7    1.031    1.435    1.031    1.435
 calculate_dm_sparse                119  9.5    0.001    0.001    1.336    1.389
 prepare_preconditioner              11  7.9    0.000    0.000    1.351    1.353
 make_preconditioner                 11  8.9    0.000    0.000    1.351    1.353
 make_full_inverse_cholesky          11  9.9    0.000    0.000    1.218    1.230
 cp_dbcsr_sm_fm_multiply             37  9.5    0.001    0.001    1.207    1.208
 build_core_hamiltonian_matrix       11  6.9    0.000    0.000    1.113    1.160
 rs_pw_transfer_PW2RS_140           130 13.9    0.682    0.725    1.108    1.148
 cp_dbcsr_sm_fm_multiply_core        37 10.5    0.002    0.005    1.110    1.114
 mp_sum_d                          4137 11.9    0.824    1.092    0.824    1.092
 dbcsr_finalize                    6032 13.6    0.017    0.019    0.991    1.086
 dbcsr_merge_all                   4914 14.8    0.337    0.389    0.948    1.044
 mp_alltoall_z22v                  1201 16.6    0.734    1.034    0.734    1.034
 make_images_data                  4572 15.5    0.031    0.033    0.932    1.000
 hybrid_alltoall_any               4725 16.4    0.158    0.771    0.871    0.939
 make_images_pack                  4572 15.5    0.854    0.871    0.869    0.886
 qs_ot_get_derivative_diag           49 12.0    0.003    0.003    0.856    0.859
 x_to_yz                            595 16.2    0.241    0.254    0.627    0.855
 qs_ot_p2m_diag                      50 11.0    0.014    0.014    0.845    0.845
 qs_env_update_s_mstruct             11  6.9    0.000    0.001    0.786    0.841
 qs_vxc_create                      119 10.3    0.002    0.004    0.719    0.807
 qs_ot_get_derivative_taylor         59 13.0    0.002    0.002    0.799    0.804
 xc_vxc_pw_create                   119 11.3    0.070    0.073    0.717    0.803
 build_core_ppl                      11  7.9    0.692    0.752    0.692    0.752
 cp_dbcsr_syevd                      50 12.0    0.003    0.005    0.731    0.731
 cp_fm_syevd                         50 13.0    0.370    0.691    0.703    0.704
 multiply_cannon_metrocomm3        9144 14.5    0.011    0.012    0.382    0.649
 fft_wrap_pw1pw2_50                 238 14.0    0.035    0.042    0.528    0.648
 cp_fm_syevd_base                    50 14.0    0.320    0.640    0.320    0.640
 yz_to_x                            606 15.1    0.190    0.203    0.538    0.615
 cp_fm_cholesky_invert               11 10.9    0.591    0.592    0.591    0.592
 dbcsr_make_dense_low              5837 15.5    0.026    0.027    0.525    0.573
 qs_ot_get_orbitals                 108 10.5    0.001    0.001    0.564    0.566
 dbcsr_make_images_dense           3978 14.8    0.024    0.025    0.494    0.542
 buffer_matrices_ensure_size       4572 14.5    0.487    0.524    0.500    0.536
 qs_create_task_list                 11  7.9    0.001    0.002    0.525    0.530
 generate_qs_task_list               11  8.9    0.265    0.292    0.524    0.528
 make_dense_data                   5837 16.5    0.446    0.492    0.471    0.518
 rs_pw_transfer_RS2PW_50            119 11.7    0.193    0.202    0.475    0.510
 pw_poisson_solve                   119 10.3    0.360    0.365    0.493    0.494
 build_overlap_matrix                22  6.9    0.251    0.262    0.460    0.484
 rs_pw_transfer_PW2RS_50            119 14.3    0.245    0.252    0.456    0.480
 dbcsr_trace_a_b_d                 1205 11.9    0.183    0.186    0.371    0.479
 build_kinetic_matrix                22  6.9    0.445    0.461    0.454    0.471
 rs_grid_zero                       617 10.8    0.427    0.442    0.427    0.442
 xc_rho_set_and_dset_create         119 12.3    0.003    0.004    0.420    0.438
 make_basis_sm                       11  9.8    0.000    0.001    0.432    0.433
 pw_gather_p                        606 14.1    0.375    0.423    0.375    0.423
 dbcsr_complete_redistribute        329 12.2    0.155    0.162    0.377    0.410
 xc_functional_eval                 119 13.3    0.386    0.400    0.386    0.400
 reorthogonalize_vectors             10  9.0    0.000    0.000    0.374    0.374
 build_core_ppnl_forces              11  5.9    0.340    0.373    0.340    0.373
 ot_scf_init                         11  7.9    0.002    0.003    0.368    0.371
 pw_scatter_p                       595 15.2    0.329    0.334    0.329    0.334
 multiply_cannon_metrocomm4        6858 14.5    0.012    0.013    0.218    0.323
 copy_dbcsr_to_fm                   153 11.3    0.028    0.030    0.311    0.317
 calculate_rho_core                  11  7.9    0.016    0.018    0.251    0.312
 cp_fm_cholesky_decompose            22 10.9    0.307    0.312    0.307    0.312
 dbcsr_copy                        6804 12.3    0.024    0.025    0.290    0.299
 dbcsr_data_copyall               27905  9.2    0.281    0.290    0.281    0.290
 cp_dbcsr_plus_fm_fm_t_native        22  8.9    0.001    0.001    0.280    0.290
 mp_irecv_dv                      22690 15.5    0.182    0.282    0.182    0.282
 distribute_tasks                    11  9.9    0.068    0.070    0.259    0.275
 pw_copy                            952 12.7    0.263    0.270    0.263    0.270
 copy_fm_to_dbcsr                   176 11.2    0.026    0.027    0.229    0.261
 tree_to_linear_d                  1073 14.6    0.219    0.255    0.220    0.256
 mp_allgather_i34                  2286 14.5    0.141    0.254    0.141    0.254
 make_images_sizes                 4572 15.5    0.004    0.005    0.189    0.242
 mp_alltoall_i44                   4572 16.5    0.184    0.239    0.184    0.239
 dbcsr_data_copy_aa2               2836 15.1    0.219    0.235    0.219    0.235
 dbcsr_data_release              151948 15.9    0.075    0.077    0.185    0.224
 transfer_dbcsr_to_fm                11 10.9    0.000    0.000    0.215    0.219
 calculate_ecore_overlap             22  5.9    0.000    0.000    0.114    0.218
 qs_energies_compute_matrix_w        11  5.9    0.000    0.001    0.211    0.216
 calculate_w_matrix_ot               11  6.9    0.001    0.002    0.211    0.216
 overlap_ab                      126704  7.9    0.194    0.206    0.194    0.206
 calculate_first_density_matrix       1  7.0    0.001    0.002    0.199    0.201
 dbcsr_destroy                    29390 13.8    0.041    0.042    0.154    0.193
 dbcsr_create_new                 35344 14.3    0.071    0.073    0.186    0.192
 fft_wrap_pw1pw2_20                 238 14.0    0.009    0.011    0.123    0.187
 cp_gemm                             81  9.0    0.000    0.000    0.173    0.174
 cp_gemm_fm_gemm                     81 10.0    0.000    0.001    0.172    0.173
 cp_fm_gemm                          81 11.0    0.172    0.173    0.172    0.173
 dbcsr_arnoldi_extremal             119 11.4    0.002    0.004    0.155    0.160
 merge_index                       4914 15.8    0.154    0.159    0.154    0.159
 dbcsr_arnoldi_normal_ev            119 12.4    0.004    0.007    0.152    0.157
 evaluate_core_matrix_traces        119  8.3    0.001    0.001    0.156    0.156
 calculate_ptrace_kp                238  9.3    0.000    0.000    0.155    0.155
 mp_sum_l                          4052 13.7    0.130    0.154    0.130    0.154
 dbcsr_add_d                       1881 12.8    0.002    0.002    0.150    0.152
 dbcsr_add_anytype                 1881 13.8    0.068    0.069    0.149    0.150
 transfer_fm_to_dbcsr                11  9.9    0.000    0.000    0.120    0.150
 internal_data_deallocate         50099 16.7    0.090    0.126    0.110    0.147
 mp_isendrecv_dv                  10710 14.0    0.108    0.142    0.108    0.142
 qs_init_subsys                       1  2.0    0.006    0.009    0.138    0.140
 mp_isend_dv                      22690 15.5    0.130    0.137    0.130    0.137
 dbcsr_data_new                   82668 15.4    0.066    0.068    0.125    0.131
 load_balance_distributed            11 10.9    0.000    0.000    0.116    0.131
 cp_fm_upper_to_full                 22 12.4    0.113    0.125    0.113    0.125
 compute_load_list                   22 11.9    0.075    0.081    0.112    0.125
 dbcsr_make_untransposed_blocks    2729 13.4    0.089    0.112    0.100    0.122
 pw_axpy                            595 10.6    0.115    0.122    0.115    0.122
 rs_pw_transfer_PW2RS_20            119 14.3    0.056    0.057    0.111    0.118
 dbcsr_make_dense                  1859 13.9    0.006    0.006    0.114    0.118
 mp_bcast_b                        1737 13.6    0.058    0.116    0.058    0.116
 setup_rec_index_2d                4572 14.5    0.006    0.007    0.107    0.111
 integrate_v_core_rspace             11  7.9    0.011    0.013    0.107    0.109
 build_core_ppnl                     11  7.9    0.098    0.108    0.098    0.108
 rs_pw_transfer_RS2PW_20            119 11.7    0.049    0.050    0.101    0.106
 call_rec_sort_index               4550 15.5    0.101    0.104    0.101    0.104
 external_control                   118  7.2    0.001    0.001    0.043    0.104
 topology_control                     1  2.0    0.009    0.037    0.079    0.104
 build_subspace                     119 13.4    0.003    0.004    0.098    0.101
 dbcsr_make_undense                1859 13.9    0.066    0.067    0.092    0.093
 get_current_loads                  110 11.7    0.035    0.038    0.072    0.091
 mp_alltoall_i22                    627 13.8    0.059    0.091    0.059    0.091
 dbcsr_special_finalize            4572 15.5    0.006    0.006    0.085    0.088
 dbcsr_matrix_colvec_multiply_l    1669 14.0    0.002    0.003    0.077    0.087
 dbcsr_matrix_vector_mult          1669 15.0    0.004    0.005    0.076    0.085
 qs_ot_p2m_taylor                    69 11.7    0.001    0.003    0.080    0.083
 quick_finalize                    5394 16.2    0.015    0.017    0.080    0.083
 dbcsr_desymmetrize_deep            153 12.3    0.023    0.025    0.074    0.079
 multiply_cannon_metrocomm2        6858 14.5    0.014    0.016    0.068    0.077
 qs_env_setup                         1  3.0    0.002    0.004    0.075    0.076
 dbcsr_sort_indices               10069 16.2    0.071    0.075    0.071    0.075
 create_qs_kind_set                   1  2.0    0.001    0.020    0.066    0.073
 read_qs_kind                         2  3.0    0.033    0.041    0.064    0.072
 dbcsr_mm_multrec_init             2286 14.5    0.005    0.005    0.068    0.072
 dbcsr_add_wm_from_matrix           443 12.9    0.001    0.001    0.064    0.070
 qs_env_rebuild_pw_env               23  5.3    0.001    0.002    0.068    0.069
 pw_env_rebuild                       1  5.0    0.004    0.007    0.067    0.069
 dbcsr_fill_wm_from_matrix          443 13.9    0.012    0.012    0.061    0.068
 setup_buffer_matrices             4572 14.5    0.016    0.017    0.061    0.066
 dbcsr_mm_csr_init                 2286 15.5    0.041    0.043    0.063    0.066
 connectivity_control                 1  3.0    0.005    0.055    0.061    0.064
 internal_data_allocate           50099 16.5    0.039    0.041    0.060    0.063
 dbcsr_set_anytype                  603 11.9    0.059    0.060    0.062    0.063
 topology_generate_bond               1  4.0    0.014    0.054    0.053    0.059
 mp_alltoall_l                      121 12.6    0.037    0.059    0.037    0.059
 dbcsr_iterator_start             32966 16.1    0.038    0.039    0.055    0.056
 build_qs_neighbor_lists             11  6.9    0.002    0.003    0.052    0.056
 topology_generate_bond_2             1  5.0    0.030    0.053    0.030    0.053
 dbcsr_make_index_exist           35344 15.3    0.039    0.040    0.051    0.053
 init_qs_kind_set                     1  3.0    0.000    0.000    0.051    0.052
 init_qs_kind                         2  4.0    0.000    0.000    0.051    0.052
 init_orb_basis_set                   2  5.0    0.000    0.000    0.051    0.052
 init_cphi_and_sphi                   2  6.0    0.051    0.051    0.051    0.051
 topology_generate_bond_1             1  5.0    0.003    0.051    0.003    0.051
 cp_dbcsr_alloc_block_from_nbl       88  7.7    0.014    0.016    0.046    0.049
 mp_sum_dm                          438  4.9    0.043    0.048    0.043    0.048
 pw_grid_setup                        4  6.0    0.001    0.002    0.047    0.047
 pw_grid_setup_internal               4  7.0    0.003    0.003    0.045    0.046
 md_write_output                     11  3.9    0.003    0.032    0.005    0.046
 mp_sum_dv                         6497 15.7    0.035    0.045    0.035    0.045
 md_output                           10  3.0    0.000    0.000    0.007    0.044
 dbcsr_new_transposed               954 13.3    0.008    0.008    0.042    0.044
 mp_isend_iv                      22816 15.8    0.039    0.043    0.039    0.043
 pw_zero                            119 10.7    0.042    0.042    0.042    0.042
 dbcsr_switch_data_area           19325 15.6    0.012    0.012    0.040    0.041
 update_particle_set                 20  4.0    0.000    0.001    0.036    0.040
 dbcsr_col_vec_to_rep_row          1669 16.0    0.003    0.005    0.028    0.039
 dbcsr_iterator_stop              32966 16.1    0.023    0.024    0.036    0.037
 topology_connectivity_pack           1  3.0    0.000    0.002    0.005    0.037
 topology_connectivity_pack_6         1  4.0    0.003    0.036    0.003    0.036
 dbcsr_reserve_blocks               564 14.3    0.029    0.031    0.033    0.035
 mp_allocate_d                    26816 17.3    0.033    0.035    0.033    0.035
 get_fft_scratch                   1202 15.6    0.033    0.034    0.033    0.034
 create_local_tasks                  11 10.9    0.026    0.027    0.033    0.033
 mp_irecv_dm3                      1040 13.7    0.012    0.033    0.012    0.033
 parser_read_line                  2671  4.0    0.001    0.001    0.031    0.032
 rs_pw_transfer_PW2RS_10            119 14.3    0.011    0.012    0.028    0.031
 fft_wrap_pw1pw2_10                 238 14.0    0.002    0.002    0.024    0.031
 parser_read_line_low                 4  5.0    0.003    0.022    0.030    0.031
 fft3d_s                              1  2.0    0.000    0.001    0.030    0.030
 mp_deallocate_d                  26816 17.3    0.029    0.030    0.029    0.030
 pw_grid_sort                         4  8.0    0.015    0.015    0.030    0.030
 broadcast_input_information          4  6.0    0.000    0.000    0.028    0.030
 cp_fm_triangular_multiply           11 10.8    0.028    0.029    0.028    0.029
 cp_fm_create                       325 12.2    0.025    0.029    0.025    0.029
 mp_irecv_iv                      22816 15.8    0.019    0.028    0.019    0.028
 arnoldi_init                       119 13.4    0.001    0.002    0.025    0.028
 dbcsr_make_dists_dense            1989 13.8    0.018    0.019    0.027    0.028
 dbcsr_work_create                10288 14.6    0.016    0.016    0.026    0.028
 dbcsr_distribution_new           12473 14.0    0.024    0.026    0.024    0.026
 mp_bcast_i                         101  2.8    0.023    0.025    0.023    0.025
 rs_pw_transfer_RS2PW_10            119 11.7    0.010    0.010    0.023    0.024
 calculate_atomic_block_dm            1  8.0    0.005    0.009    0.023    0.024
 cp_dbcsr_cholesky_decompose         11 12.9    0.017    0.018    0.023    0.023
 load_balance_replicated             11 10.9    0.006    0.007    0.023    0.023
 dbcsr_redistribute                 145 14.7    0.005    0.005    0.020    0.023
 compute_evals                      119 13.4    0.017    0.020    0.017    0.020
 dbcsr_work_destroy_all           10288 15.5    0.011    0.012    0.018    0.019
 mp_sum_b                          4022 13.8    0.018    0.019    0.018    0.019
 fill_hash_tables                  2286 16.5    0.017    0.018    0.017    0.018
 dbcsr_iterator_seek              32966 17.1    0.017    0.018    0.017    0.018
 dbcsr_copy_into_existing            22  7.9    0.006    0.006    0.017    0.018
 mp_allocate_i                    19924 16.9    0.016    0.016    0.016    0.016
 build_neighbor_lists_sab_all        11  7.9    0.014    0.016    0.014    0.016
 mp_deallocate_i                  19924 16.6    0.015    0.016    0.015    0.016
 sort_shells                          4  9.0    0.015    0.016    0.015    0.016
 mp_bcast_dv                       1719 16.9    0.010    0.015    0.010    0.015
 rot_ana                              1  3.0    0.000    0.000    0.014    0.014
 build_neighbor_lists_sac_ppl        11  7.9    0.013    0.014    0.013    0.014
 diamat_all                           1  4.0    0.014    0.014    0.014    0.014
 make_full_kinetic                   11  9.9    0.000    0.001    0.013    0.013
 build_neighbor_lists_sab_orb        11  7.9    0.012    0.013    0.012    0.013
 mp_sum_iv                          362 11.8    0.011    0.013    0.011    0.013
 write_trajectory                    44  4.9    0.001    0.002    0.002    0.013
 compute_max_radius                   1  6.0    0.011    0.013    0.011    0.013
 dbcsr_make_index_list             4572 14.5    0.012    0.012    0.012    0.012
 dbcsr_matrix_vector_mult_local    1669 16.0    0.008    0.009    0.012    0.012
 mp_alltoall_i11v                  1575 13.9    0.010    0.012    0.010    0.012
 calculate_atom                       2  9.0    0.000    0.000    0.011    0.012
 calculate_atom_restricted            2 10.0    0.010    0.012    0.011    0.012
 dbcsr_mm_multrec_finalize         2286 15.5    0.010    0.010    0.011    0.012
 dbcsr_make_dbcsr_index           12066 16.3    0.011    0.012    0.011    0.012
 pw_scale                           119 10.3    0.009    0.011    0.009    0.011
 dbcsr_cholesky_invert               11 12.9    0.006    0.006    0.011    0.011
 build_neighbor_lists_sap_ppnl       11  7.9    0.009    0.011    0.009    0.011
 write_particle_coordinates          11  5.9    0.001    0.011    0.001    0.011
 qs_env_rebuild_rho                  11  7.9    0.000    0.000    0.009    0.010
 create_fast_row_vec_access        1669 16.0    0.003    0.004    0.009    0.010
 qs_rho_rebuild                      11  8.9    0.001    0.001    0.009    0.010
 cp_fm_init_random                    1  8.0    0.009    0.010    0.009    0.010
 mp_bcast_av                        552  1.0    0.001    0.002    0.006    0.010
 wfs_update                          11  5.9    0.001    0.001    0.009    0.009
 dbcsr_zero                        3667 16.2    0.008    0.009    0.008    0.009
 dbcsr_scale_by_vector_anytype      208 11.2    0.008    0.008    0.009    0.009
 dbcsr_finalize_lib                   1  2.0    0.001    0.001    0.008    0.008
 mp_bcast_im                        120 14.3    0.004    0.008    0.004    0.008
 mp_comm_split                       50 14.0    0.007    0.008    0.007    0.008
 dbcsr_index_prune_deleted         3978 15.8    0.008    0.008    0.008    0.008
 dbcsr_get_data_size_used          5716 14.8    0.008    0.008    0.008    0.008
 dbcsr_scale_anytype               2109 14.8    0.006    0.007    0.006    0.008
 create_fast_col_vec_access        1669 16.0    0.001    0.002    0.007    0.008
 atom_int_setup                       2  9.0    0.003    0.008    0.004    0.008
 create_fast_row_vec_access_d      1669 17.0    0.002    0.004    0.006    0.007
 dbcsr_scale_d                      228 13.5    0.000    0.000    0.006    0.007
 dbcsr_make_index_local_row        4572 14.5    0.006    0.007    0.007    0.007
 atom_ppint_setup                     2  9.0    0.002    0.007    0.002    0.007
 cleanup_scf_loop                    11  7.9    0.000    0.000    0.004    0.007
 Gram_Schmidt_ortho_d              1550 14.0    0.001    0.003    0.006    0.007
 mp_max_l                            22  2.0    0.006    0.007    0.006    0.007
 mp_bcast_am                          4  7.0    0.002    0.006    0.006    0.006
 transpose_index_local              954 14.3    0.002    0.002    0.006    0.006
 optimize_load_list                  11 11.9    0.000    0.000    0.004    0.006
 distribute_molecules_2d              1  4.0    0.003    0.006    0.003    0.006
 topology_muc                         1  4.0    0.001    0.006    0.001    0.006
 mp_isend_dm3                      1040 13.7    0.005    0.006    0.005    0.006
 qs_scf_ensure_work_matrices         11  5.9    0.002    0.004    0.004    0.006
 scf_post_calculation_gpw            11  5.9    0.001    0.003    0.005    0.006
 dbcsr_get_local_rows              4145 14.1    0.005    0.006    0.005    0.006
 dbcsr_add_on_diag_anytype          138 12.7    0.001    0.003    0.003    0.006
 create_fast_col_vec_access_d      1669 17.0    0.002    0.002    0.005    0.006
 dbcsr_get_local_cols              4145 14.1    0.005    0.005    0.005    0.005
 mp_bcast_i3                         11 12.9    0.002    0.005    0.002    0.005
 DGKS_ortho_d                      1550 14.0    0.001    0.002    0.004    0.005
 pw_grid_assign                       4  8.0    0.004    0.004    0.005    0.005
 dbcsr_gershgorin_norm               48 11.0    0.000    0.001    0.004    0.005
 create_col_vec_from_matrix         238 13.4    0.001    0.001    0.004    0.005
 mp_bcast_iv                         23  4.6    0.004    0.005    0.004    0.005
 distribute_molecules_1d              1  3.0    0.001    0.005    0.001    0.005
 topology_generate_molecule           1  4.0    0.001    0.004    0.001    0.005
 cp_fm_release                      330 11.9    0.002    0.005    0.002    0.005
 write_available_results             11  6.9    0.000    0.000    0.002    0.005
 init_interaction_radii               1  3.0    0.002    0.005    0.002    0.005
 mp_rank_compare                   1201 15.6    0.004    0.005    0.004    0.005
 topology_generate_bond_4             1  5.0    0.002    0.004    0.003    0.005
 topology_coordinate_pack             1  3.0    0.000    0.000    0.001    0.005
 topology_coordinate_pack_1           1  4.0    0.001    0.005    0.001    0.005
 mp_alltoall_l11v                    11 11.9    0.004    0.004    0.004    0.004
 write_restart                       10  4.0    0.001    0.004    0.003    0.004
 pw_grid_distribute                   4  8.0    0.001    0.001    0.003    0.004
 mp_sum_root_iv                      11 12.9    0.001    0.004    0.001    0.004
 topology_generate_bond_3             1  5.0    0.000    0.001    0.003    0.004
 dbcsr_hadamard_product              98 13.0    0.001    0.002    0.004    0.004
 contract2                           15 10.0    0.001    0.004    0.001    0.004
 write_mo_free_results               11  7.9    0.001    0.004    0.002    0.004
 mp_comm_compare                   1204 15.6    0.003    0.004    0.003    0.004
 build_fist_neighbor_lists            1  6.0    0.001    0.002    0.003    0.004
 dbcsr_mm_sched_init               2286 16.5    0.002    0.002    0.004    0.004
 topology_generate_molecule_PAR       1  5.0    0.001    0.004    0.001    0.004
 check_generate_mol                   1  6.0    0.000    0.004    0.000    0.004
 contract2add                        10 10.0    0.000    0.004    0.000    0.004
 mp_max_d                          1103  1.0    0.004    0.004    0.004    0.004
 write_mo_set_to_restart            108  7.5    0.002    0.004    0.002    0.004
 mp_environ_l                      1402 14.6    0.003    0.004    0.003    0.004
 mp_cart_create                       5  9.4    0.003    0.004    0.003    0.004
 restraint_control                   11  3.9    0.001    0.002    0.002    0.004
 qs_scf_post_charges                 11  6.9    0.001    0.003    0.001    0.003
 pw_pool_create_pw                 2416 11.8    0.003    0.003    0.003    0.003
 mp_max_i                           348  1.6    0.002    0.003    0.002    0.003
 cp_dbcsr_distribution_new_clus     413  9.1    0.000    0.001    0.002    0.003
 pw_pool_give_back_pw              2867 12.0    0.003    0.003    0.003    0.003
 coordinate_control                   1  3.0    0.000    0.000    0.002    0.003
 coordinate_control_READ_COORDI       1  4.0    0.000    0.002    0.002    0.003
 mp_environ_c                      1201 15.6    0.003    0.003    0.003    0.003
 dbcsr_reserve_all_blocks           476 14.4    0.001    0.001    0.002    0.003
 topology_connectivity_pack_4         1  4.0    0.000    0.003    0.000    0.003
 build_neighbor_lists                 1  7.0    0.002    0.003    0.002    0.003
 kpoint_initialize                    1  2.0    0.000    0.003    0.000    0.003
 read_atoms_input                     1  5.0    0.002    0.003    0.002    0.003
 dbcsr_get_global_row_map          2286 13.5    0.002    0.003    0.002    0.003
 mp_comm_dup                          8  6.5    0.002    0.003    0.002    0.003
 topology_connectivity_pack_11        1  4.0    0.000    0.003    0.000    0.003
 pw_grid_remap                        4  8.0    0.000    0.000    0.002    0.003
 mp_comm_free                        65 11.5    0.002    0.003    0.002    0.003
 topology_connectivity_pack_2         1  4.0    0.000    0.002    0.000    0.002
 wfi_create                           1  3.0    0.000    0.002    0.000    0.002
 topology_generate_bond_6             1  5.0    0.000    0.002    0.000    0.002
 topology_coordinate_pack_5           1  4.0    0.000    0.002    0.000    0.002
 update_input                         1  5.0    0.001    0.002    0.002    0.002
 rs_grid_create_descriptor            4  6.0    0.001    0.001    0.002    0.002
 mp_sum_im3                           4  9.0    0.001    0.002    0.001    0.002
 build_neighbor_lists_sab_core       11  7.9    0.002    0.002    0.002    0.002
 mp_sum_im                           55 12.8    0.001    0.002    0.001    0.002
 cp_fm_scale_and_add                 24  9.0    0.002    0.002    0.002    0.002
 read_binary_coordinates              1  3.0    0.000    0.002    0.000    0.002
 qs_scf_loop_print                  108  7.5    0.002    0.002    0.002    0.002
 cp_fm_to_fm_matrix                  21  7.9    0.002    0.002    0.002    0.002
 dbcsr_get_global_col_map          2286 13.5    0.002    0.002    0.002    0.002
 scf_env_release                      3  4.0    0.000    0.000    0.001    0.002
 destroy_preconditioner               1  3.0    0.000    0.000    0.001    0.002
 atom2d_build                        11  7.9    0.000    0.002    0.000    0.002
 mpools_rebuild_fm_pools              1  4.0    0.001    0.002    0.001    0.002
 ot_scf_read_input                   11  7.9    0.000    0.001    0.001    0.002
 mp_allgather_l                     121 12.6    0.001    0.002    0.001    0.002
 external_e_potential                22  5.9    0.000    0.002    0.000    0.002
 external_c_potential                22  5.9    0.000    0.002    0.000    0.002
 create_replicated_col_vec_from     119 13.4    0.000    0.000    0.002    0.002
 make_basic_distribution              1  5.0    0.000    0.002    0.000    0.002
 scf_c_read_parameters                1  3.0    0.000    0.002    0.000    0.002
 topology_connectivity_pack_14_       1  4.0    0.000    0.002    0.000    0.002
 fist_neighbor_init                   1  8.0    0.000    0.002    0.000    0.002
 ot_readwrite_input                  11  8.9    0.001    0.002    0.001    0.002
 qs_scf_post_elf                     11  6.9    0.000    0.002    0.000    0.002
 mp_sync                             54 13.0    0.001    0.002    0.001    0.002
 temperature_control                 10  3.0    0.000    0.002    0.000    0.002
 scf_c_write_parameters               1  3.0    0.000    0.002    0.000    0.002
 pw_poisson_rebuild                 119 11.3    0.001    0.002    0.001    0.002
 release_fast_vec_access           3338 16.0    0.002    0.002    0.002    0.002
 add_external_potential              11  3.9    0.000    0.002    0.000    0.002
 dbcsr_mm_hostdrv_init             2286 17.5    0.001    0.002    0.001    0.002
 create_replicated_row_vec_from     119 13.4    0.000    0.000    0.002    0.002
 dbcsr_mm_sched_finalize           2286 16.5    0.001    0.002    0.001    0.002
 calculate_atom_vxc_lda              12 11.0    0.000    0.002    0.000    0.002
 topology_generate_ub                 1  4.0    0.000    0.002    0.000    0.002
 dbcsr_verify_matrix                 22  9.9    0.001    0.002    0.001    0.002
 atom_relint_setup                    2  9.0    0.000    0.001    0.000    0.001
 read_qs_section                      1  3.0    0.001    0.001    0.001    0.001
 mp_min_lv                            4  8.0    0.001    0.001    0.001    0.001
 qs_energies_init_kg                 11  5.9    0.000    0.001    0.000    0.001
 update_motion                        1  6.0    0.000    0.000    0.000    0.001
 qs_scf_post_ps_implicit             11  8.9    0.000    0.001    0.000    0.001
 cp_fm_set_all                        1  8.0    0.000    0.001    0.000    0.001
 init_cube_info                       4  6.0    0.001    0.001    0.001    0.001
 dbcsr_get_conf_nstacks            2286 16.5    0.001    0.001    0.001    0.001
 update_subsys                        1  6.0    0.000    0.000    0.001    0.001
 pw_poisson_set                       1  6.0    0.000    0.001    0.000    0.001
 topology_connectivity_pack_12        1  4.0    0.000    0.001    0.000    0.001
 pw_create                          382 12.9    0.001    0.001    0.001    0.001
 sg_erf                               5 10.0    0.000    0.001    0.000    0.001
 create_grid_atom                     2  9.0    0.000    0.001    0.000    0.001
 metadyn_read                         1  2.0    0.000    0.001    0.000    0.001
 update_motion_THERMOSTAT_SHELL       1  7.0    0.000    0.001    0.000    0.001
 mp_sum_i                            12  4.6    0.001    0.001    0.001    0.001
 topology_coordinate_pack_2           1  4.0    0.000    0.001    0.000    0.001
 section_coord_val_set                1  7.0    0.001    0.001    0.001    0.001
 mp_cart_sub                          2 11.0    0.001    0.001    0.001    0.001
 create_local_fixd_list              11  4.9    0.000    0.001    0.000    0.001
 qs_efield_local_operator           119 10.3    0.001    0.001    0.001    0.001
 mp_sum_lv                           20  4.0    0.000    0.001    0.000    0.001
 compute_averages                    10  5.0    0.000    0.001    0.000    0.001
 mp_cart_rank                         4  9.0    0.000    0.001    0.000    0.001
 write_qs_control                     1  3.0    0.001    0.001    0.001    0.001
 qs_efield_berry_phase              119 10.3    0.001    0.001    0.001    0.001
 dump_info_core_hamiltonian          22  6.9    0.000    0.001    0.000    0.001
 write_mo_dependent_results          11  7.9    0.000    0.001    0.000    0.001
 qs_scf_print_scf_summary            11  7.9    0.000    0.001    0.000    0.001
 mp_max_lv                            4  8.0    0.000    0.001    0.000    0.001
 rs_grid_create                      15  8.9    0.000    0.001    0.000    0.001
 update_motion_AVERAGES               1  7.0    0.000    0.001    0.000    0.001
 create_destination_list             11 11.9    0.000    0.001    0.000    0.001
 mp_sum_partial_im                   11 12.9    0.000    0.000    0.000    0.000
 fix_atom_control                    11  3.9    0.000    0.000    0.000    0.000
 connectivity_control_check_ele       1  4.0    0.000    0.000    0.000    0.000
 mp_min_rv                            1  3.0    0.000    0.000    0.000    0.000
 scf_c_create                         1  3.0    0.000    0.000    0.000    0.000
 set_mo_occupation_1                120  9.4    0.000    0.000    0.000    0.000
 write_dft_control                    1  3.0    0.000    0.000    0.000    0.000
 qs_scf_ensure_mos                   11  5.9    0.000    0.000    0.000    0.000
 setup_velocities                     1  3.0    0.000    0.000    0.000    0.000
 qs_ks_did_change                   130  7.7    0.000    0.000    0.000    0.000
 initialize_velocities                1  4.0    0.000    0.000    0.000    0.000
 mp_max_r                             1  3.0    0.000    0.000    0.000    0.000
 dbcsr_filter_anytype               163  9.7    0.000    0.000    0.000    0.000
 qs_energies_properties              11  5.9    0.000    0.000    0.000    0.000
 write_structure_data                12  4.8    0.000    0.000    0.000    0.000
 topology_connectivity_pack_5         1  4.0    0.000    0.000    0.000    0.000
 topology_connectivity_pack_13        1  4.0    0.000    0.000    0.000    0.000
 topology_connectivity_pack_10        1  4.0    0.000    0.000    0.000    0.000
 mp_cart_coords                      64  9.0    0.000    0.000    0.000    0.000
 cp_fm_scale                         10  9.0    0.000    0.000    0.000    0.000
 sort_neighbor_lists                  1  7.0    0.000    0.000    0.000    0.000
 topology_connectivity_pack_14        1  4.0    0.000    0.000    0.000    0.000
 topology_connectivity_pack_12_       1  4.0    0.000    0.000    0.000    0.000
 update_motion_THERMOSTAT_PARTI       1  7.0    0.000    0.000    0.000    0.000
 update_motion_NPT                    1  7.0    0.000    0.000    0.000    0.000
 wfn_mix                             11  6.9    0.000    0.000    0.000    0.000
 calculate_ecore_self                22  5.9    0.000    0.000    0.000    0.000
 topology_constraint_pack             1  3.0    0.000    0.000    0.000    0.000
 topology_molecules_check             1  4.0    0.000    0.000    0.000    0.000
 topology_connectivity_pack_1         1  4.0    0.000    0.000    0.000    0.000
 topology_connectivity_pack_3         1  4.0    0.000    0.000    0.000    0.000
 topology_constraint_pack_3           1  4.0    0.000    0.000    0.000    0.000
 remove_restart_info                  1  2.0    0.000    0.000    0.000    0.000
 topology_connectivity_pack_13_       1  4.0    0.000    0.000    0.000    0.000
 topology_set_atm_mass                1  4.0    0.000    0.000    0.000    0.000
 -------------------------------------------------------------------------------

 The number of warnings for this run is : 1
 
 -------------------------------------------------------------------------------
  **** **** ******  **  PROGRAM ENDED AT                 2017-10-27 12:43:46.844
 ***** ** ***  *** **   PROGRAM RAN ON                                      f076
 **    ****   ******    PROGRAM RAN BY                                    ongari
 ***** **    ** ** **   PROGRAM PROCESS ID                                 23464
  **** **  *******  **  PROGRAM STOPPED IN /scratch/ongari/lsmo_benchmark/cp2k/0
                                           3_fidis_cp2k-4.1_intel-mpi/ncores_016
