 DBCSR| Multiplication driver                                               BLAS
 DBCSR| Multrec recursion limit                                              512
 DBCSR| Multiplication stack size                                           1000
 DBCSR| Maximum elements for images                                    UNLIMITED
 DBCSR| Multiplicative factor virtual images                                   1
 DBCSR| Multiplication size stacks                                             3
 DBCSR| Number of 3D layers                                               SINGLE
 DBCSR| Use MPI memory allocation                                              T
 DBCSR| Use RMA algorithm                                                      F
 DBCSR| Use Communication thread                                               T
 DBCSR| Communication thread load                                             87


  **** **** ******  **  PROGRAM STARTED AT               2020-08-07 15:53:00.269
 ***** ** ***  *** **   PROGRAM STARTED ON                                  f350
 **    ****   ******    PROGRAM STARTED BY                                ongari
 ***** **    ** ** **   PROGRAM PROCESS ID                                  5574
  **** **  *******  **  PROGRAM STARTED IN /scratch/ongari/lsmo_benchmark/cp2k/0
                                           7_fidis_cp2k-5.1_intel-mpi/ncores_256

 CP2K| version string:                                          CP2K version 5.1
 CP2K| source code revision number:                                    svn:18091
 CP2K| cp2kflags: libint fftw3 pexsi parallel mpi3 scalapack libderiv_max_am1=5 
 CP2K|            libint_max_am=6
 CP2K| is freely available from                            https://www.cp2k.org/
 CP2K| Program compiled at                          Thu Jul 5 11:15:01 CEST 2018
 CP2K| Program compiled on                                                  f016
 CP2K| Program compiled for                  linux-rhel7-x86_E5v4_Mellanox-intel
 CP2K| Data directory path    /ssoft/spack/paien/v3/opt/spack/linux-rhel7-x86_E5
 CP2K| Input file name                                                H2O-64.inp
 
 GLOBAL| Force Environment number                                              1
 GLOBAL| Basis set file name                                      GTH_BASIS_SETS
 GLOBAL| Potential file name                                           POTENTIAL
 GLOBAL| MM Potential file name                                     MM_POTENTIAL
 GLOBAL| Coordinate file name                                      __STD_INPUT__
 GLOBAL| Method name                                                        CP2K
 GLOBAL| Project name                                                     H2O-64
 GLOBAL| Preferred FFT library                                             FFTW3
 GLOBAL| Preferred diagonalization lib.                                       SL
 GLOBAL| Run type                                                             MD
 GLOBAL| All-to-all communication in single precision                          F
 GLOBAL| FFTs using library dependent lengths                                  F
 GLOBAL| Global print level                                                  LOW
 GLOBAL| Total number of message passing processes                           256
 GLOBAL| Number of threads for this process                                    1
 GLOBAL| This output is from process                                           0
 GLOBAL| CPU model name :  Intel(R) Xeon(R) CPU E5-2690 v4 @ 2.60GHz

 MEMORY| system memory details [Kb]
 MEMORY|                        rank 0           min           max       average
 MEMORY| MemTotal            131625560     131625560     131625560     131625560
 MEMORY| MemFree             115170108     114629620     115170108     114845554
 MEMORY| Buffers                 24576         24132         25312         24774
 MEMORY| Cached                 202548        192404        234956        209417
 MEMORY| Slab                  1342740       1340352       1351816       1346432
 MEMORY| SReclaimable            59868         58728         62548         60548
 MEMORY| MemLikelyFree       115457100     114949472     115457100     115140295

 
 GENERATE|  Preliminary Number of Bonds generated:                             0
 GENERATE|  Achieved consistency in connectivity generation.

 *******************************************************************************
 *******************************************************************************
 **                                                                           **
 **     #####                         ##              ##                      **
 **    ##   ##            ##          ##              ##                      **
 **   ##     ##                       ##            ######                    **
 **   ##     ##  ##   ##  ##   #####  ##  ##   ####   ##    #####    #####    **
 **   ##     ##  ##   ##  ##  ##      ## ##   ##      ##   ##   ##  ##   ##   **
 **   ##  ## ##  ##   ##  ##  ##      ####     ###    ##   ######   ######    **
 **    ##  ###   ##   ##  ##  ##      ## ##      ##   ##   ##       ##        **
 **     #######   #####   ##   #####  ##  ##  ####    ##    #####   ##        **
 **           ##                                                    ##        **
 **                                                                           **
 **                                                ... make the atoms dance   **
 **                                                                           **
 **            Copyright (C) by CP2K developers group (2000 - 2017)           **
 **                                                                           **
 *******************************************************************************


 SCF PARAMETERS         Density guess:                                    ATOMIC
                        --------------------------------------------------------
                        max_scf:                                              50
                        max_scf_history:                                       0
                        max_diis:                                              4
                        --------------------------------------------------------
                        eps_scf:                                        1.00E-05
                        eps_scf_history:                                0.00E+00
                        eps_diis:                                       1.00E-01
                        eps_eigval:                                     1.00E-05
                        --------------------------------------------------------
                        level_shift [a.u.]:                                 0.00
                        --------------------------------------------------------
                        No outer SCF
 
 MD| Molecular Dynamics Protocol 
 MD| Ensemble Type                                                           NVE
 MD| Number of Time Steps                                                     10
 MD| Time Step [fs]                                                         0.50
 MD| Temperature [K]                                                      300.00
 MD| Temperature tolerance [K]                                              0.00
 MD| Print MD information every                                        1 step(s)
 MD| File type     Print frequency[steps]                             File names
 MD| Coordinates            1                                   H2O-64-pos-1.xyz
 MD| Velocities             1                                   H2O-64-vel-1.xyz
 MD| Energies               1                                      H2O-64-1.ener
 MD| Dump                  20                                   H2O-64-1.restart
 
 ROT| Rotational Analysis Info 
 ROT| Principal axes and moments of inertia in atomic units:
 ROT|                                1                 2                 3
 ROT| EIGENVALUES            0.174175353E+09   0.187507692E+09   0.199545123E+09
 ROT|      X                    -0.734964520       0.242599134       0.633224142
 ROT|      Y                    -0.044883650       0.914361712      -0.402402930
 ROT|      Z                    -0.676618513      -0.324173287      -0.661134682
 ROT| Numer of Rotovibrational vectors:     6

 Calculation of degrees of freedom
                                                      Number of atoms:       192
                                 Number of Intramolecular constraints:         0
                                 Number of Intermolecular constraints:         0
                                  Invariants(translation + rotations):         3
                                                   Degrees of freedom:       573


 Restraints Information
                                  Number of Intramolecular restraints:         0
                                  Number of Intermolecular restraints:         0
 ************************** Velocities initialization **************************
 Initial Temperature                                                    300.00 K
 COM velocity:           -0.000000000000     -0.000000000000     -0.000000000000
 *******************************************************************************


 Number of electrons:                                                        512
 Number of occupied orbitals:                                                256
 Number of molecular orbitals:                                               256

 Number of orbital functions:                                               2560
 Number of independent orbital functions:                                   2560

 Extrapolation method: initial_guess


 SCF WAVEFUNCTION OPTIMIZATION

  ----------------------------------- OT ---------------------------------------
  Minimizer      : DIIS                : direct inversion
                                         in the iterative subspace
                                         using   7 DIIS vectors
                                         safer DIIS on
  Preconditioner : FULL_KINETIC        : inversion of T + eS
  Precond_solver : DEFAULT
  stepsize       :    0.15000000                  energy_gap     :    0.20000000
  eps_taylor     :   0.10000E-15                  max_taylor     :             4
  ----------------------------------- OT ---------------------------------------

  Step     Update method      Time    Convergence         Total energy    Change
  ------------------------------------------------------------------------------
     1 OT DIIS     0.15E+00    0.4     0.01332027     -1059.3825079557 -1.06E+03
     2 OT DIIS     0.15E+00    0.2     0.00868183     -1073.0837973670 -1.37E+01
     3 OT DIIS     0.15E+00    0.2     0.00608177     -1082.3329449393 -9.25E+00
     4 OT DIIS     0.15E+00    0.3     0.00420419     -1088.9991944739 -6.67E+00
     5 OT DIIS     0.15E+00    0.2     0.00319228     -1092.5975694249 -3.60E+00
     6 OT DIIS     0.15E+00    0.3     0.00242089     -1095.2728736089 -2.68E+00
     7 OT DIIS     0.15E+00    0.2     0.00180823     -1097.1827110187 -1.91E+00
     8 OT DIIS     0.15E+00    0.2     0.00136563     -1098.4047633189 -1.22E+00
     9 OT DIIS     0.15E+00    0.2     0.00107154     -1099.0957253931 -6.91E-01
    10 OT DIIS     0.15E+00    0.2     0.00085958     -1099.5568478897 -4.61E-01
    11 OT DIIS     0.15E+00    0.2     0.00070902     -1099.8674344588 -3.11E-01
    12 OT DIIS     0.15E+00    0.2     0.00059349     -1100.0778291172 -2.10E-01
    13 OT DIIS     0.15E+00    0.2     0.00050949     -1100.2324062136 -1.55E-01
    14 OT DIIS     0.15E+00    0.2     0.00044833     -1100.3361495732 -1.04E-01
    15 OT DIIS     0.15E+00    0.2     0.00039690     -1100.4341573205 -9.80E-02
    16 OT DIIS     0.15E+00    0.2     0.00035862     -1100.5038829257 -6.97E-02
    17 OT DIIS     0.15E+00    0.2     0.00034534     -1100.5572959989 -5.34E-02
    18 OT DIIS     0.15E+00    0.2     0.00034139     -1100.5793052943 -2.20E-02
    19 OT DIIS     0.15E+00    0.2     0.00033463     -1100.5947747725 -1.55E-02
    20 OT SD       0.15E+00    0.2     0.00033658     -1100.6056260666 -1.09E-02
    21 OT DIIS     0.15E+00    0.3     0.00033500     -1100.6167319763 -1.11E-02
    22 OT DIIS     0.15E+00    0.3     0.00032752     -1100.6181772877 -1.45E-03
    23 OT DIIS     0.15E+00    0.2     0.00032184     -1100.6243788064 -6.20E-03
    24 OT DIIS     0.15E+00    0.2     0.00030944     -1100.6371111614 -1.27E-02
    25 OT SD       0.15E+00    0.2     0.00030022     -1100.6455945048 -8.48E-03
    26 OT DIIS     0.15E+00    0.2     0.00029911     -1100.6544335251 -8.84E-03
    27 OT DIIS     0.15E+00    0.2     0.00028894     -1100.6591662825 -4.73E-03
    28 OT SD       0.15E+00    0.2     0.00028473     -1100.6665469324 -7.38E-03
    29 OT SD       0.15E+00    0.2     0.00028442     -1100.6745080801 -7.96E-03
    30 OT SD       0.15E+00    0.2     0.00028480     -1100.6824637367 -7.96E-03
    31 OT SD       0.15E+00    0.2     0.00028544     -1100.6904451527 -7.98E-03
    32 OT DIIS     0.15E+00    0.2     0.00028617     -1100.6984643086 -8.02E-03
    33 OT SD       0.15E+00    0.2     0.00033212     -1100.7435639637 -4.51E-02
    34 OT SD       0.15E+00    0.2     0.00031463     -1100.7540641969 -1.05E-02
    35 OT SD       0.15E+00    0.2     0.00030588     -1100.7636402129 -9.58E-03
    36 OT SD       0.15E+00    0.2     0.00030057     -1100.7727489686 -9.11E-03
    37 OT SD       0.15E+00    0.2     0.00029679     -1100.7815697672 -8.82E-03
    38 OT SD       0.15E+00    0.2     0.00029367     -1100.7901809980 -8.61E-03
    39 OT DIIS     0.15E+00    0.2     0.00029082     -1100.7986166936 -8.44E-03
    40 OT SD       0.15E+00    0.2     0.00016832     -1100.9875398769 -1.89E-01
    41 OT DIIS     0.15E+00    0.2     0.00014749     -1100.9901042392 -2.56E-03
    42 OT DIIS     0.15E+00    0.2     0.00023359     -1100.9860270234  4.08E-03
    43 OT DIIS     0.15E+00    0.2     0.00017591     -1100.9988969370 -1.29E-02
    44 OT DIIS     0.15E+00    0.2     0.00022226     -1101.0010831348 -2.19E-03
    45 OT DIIS     0.15E+00    0.2     0.00015342     -1101.0160500110 -1.50E-02
    46 OT DIIS     0.15E+00    0.3     0.00005874     -1101.0255699555 -9.52E-03
    47 OT DIIS     0.15E+00    0.2     0.00007360     -1101.0255460655  2.39E-05
    48 OT DIIS     0.15E+00    0.2     0.00005773     -1101.0267774771 -1.23E-03
    49 OT DIIS     0.15E+00    0.2     0.00005383     -1101.0275719805 -7.95E-04
    50 OT DIIS     0.15E+00    0.2     0.00004287     -1101.0287889096 -1.22E-03

  Leaving inner SCF loop after reaching    50 steps.


  Electronic density on regular grids:       -512.0000015472       -0.0000015472
  Core density on regular grids:              512.0000000045        0.0000000045
  Total charge density on r-space grids:       -0.0000015427
  Total charge density g-space grids:          -0.0000015427

  Overlap energy of the core charge distribution:               0.00000562599749
  Self energy of the core charge distribution:              -2805.30499493854950
  Core Hamiltonian energy:                                    825.29378519557008
  Hartree energy:                                            1145.26167274346562
  Exchange-correlation energy:                               -266.27925753609634

  Total energy:                                             -1101.02878890961279

 *** WARNING in qs_scf.F:539 :: SCF run NOT converged ***


 ENERGY| Total FORCE_EVAL ( QS ) energy (a.u.):            -1101.031006970670205

 
 MD_ENERGIES| Initialization proceeding
 

 ******************************** GO CP2K GO! **********************************
 INITIAL POTENTIAL ENERGY[hartree]     =                     -0.110103100697E+04
 INITIAL KINETIC ENERGY[hartree]       =                      0.272187778755E+00
 INITIAL TEMPERATURE[K]                =                                 300.000
 INITIAL VOLUME[bohr^3]                =                      0.129095421321E+05
 INITIAL CELL LNTHS[bohr]   =      0.2345868E+02   0.2345868E+02   0.2345868E+02
 INITIAL CELL ANGLS[deg]    =      0.9000000E+02   0.9000000E+02   0.9000000E+02
 ******************************** GO CP2K GO! **********************************

 Number of electrons:                                                        512
 Number of occupied orbitals:                                                256
 Number of molecular orbitals:                                               256

 Number of orbital functions:                                               2560
 Number of independent orbital functions:                                   2560

 Extrapolation method: PS Nth order


 SCF WAVEFUNCTION OPTIMIZATION

  ----------------------------------- OT ---------------------------------------
  Minimizer      : DIIS                : direct inversion
                                         in the iterative subspace
                                         using   7 DIIS vectors
                                         safer DIIS on
  Preconditioner : FULL_KINETIC        : inversion of T + eS
  Precond_solver : DEFAULT
  stepsize       :    0.15000000                  energy_gap     :    0.20000000
  eps_taylor     :   0.10000E-15                  max_taylor     :             4
  ----------------------------------- OT ---------------------------------------

  Step     Update method      Time    Convergence         Total energy    Change
  ------------------------------------------------------------------------------
     1 OT DIIS     0.15E+00    0.2     0.00024949     -1101.0278031974 -1.10E+03
     2 OT DIIS     0.15E+00    0.2     0.00016075     -1101.0327091508 -4.91E-03
     3 OT DIIS     0.15E+00    0.2     0.00009050     -1101.0362863174 -3.58E-03
     4 OT DIIS     0.15E+00    0.2     0.00006199     -1101.0377277257 -1.44E-03
     5 OT DIIS     0.15E+00    0.2     0.00003797     -1101.0386877894 -9.60E-04
     6 OT DIIS     0.15E+00    0.2     0.00002205     -1101.0391017619 -4.14E-04
     7 OT DIIS     0.15E+00    0.2     0.00001260     -1101.0392355450 -1.34E-04
     8 OT DIIS     0.15E+00    0.2     0.00000723     -1101.0392767826 -4.12E-05

  *** SCF run converged in     8 steps ***


  Electronic density on regular grids:       -512.0000014905       -0.0000014905
  Core density on regular grids:              511.9999999975       -0.0000000025
  Total charge density on r-space grids:       -0.0000014931
  Total charge density g-space grids:          -0.0000014931

  Overlap energy of the core charge distribution:               0.00000554074590
  Self energy of the core charge distribution:              -2805.30499493854950
  Core Hamiltonian energy:                                    824.99709670365212
  Hartree energy:                                            1145.47089243722348
  Exchange-correlation energy:                               -266.20227652568326

  Total energy:                                             -1101.03927678261152

 ENERGY| Total FORCE_EVAL ( QS ) energy (a.u.):            -1101.039289563984084


 *******************************************************************************
 ENSEMBLE TYPE                =                                              NVE
 STEP NUMBER                  =                                                1
 TIME [fs]                    =                                         0.500000
 CONSERVED QUANTITY [hartree] =                              -0.110076554067E+04

                                              INSTANTANEOUS             AVERAGES
 CPU TIME [s]                 =                       13.38                13.38
 ENERGY DRIFT PER ATOM [K]    =         -0.110545476877E+02   0.000000000000E+00
 POTENTIAL ENERGY[hartree]    =         -0.110103928956E+04  -0.110103928956E+04
 KINETIC ENERGY [hartree]     =          0.273748891513E+00   0.273748891513E+00
 TEMPERATURE [K]              =                     301.721              301.721
 *******************************************************************************


 Number of electrons:                                                        512
 Number of occupied orbitals:                                                256
 Number of molecular orbitals:                                               256

 Number of orbital functions:                                               2560
 Number of independent orbital functions:                                   2560

 Extrapolation method: PS Nth order


 SCF WAVEFUNCTION OPTIMIZATION

  ----------------------------------- OT ---------------------------------------
  Minimizer      : DIIS                : direct inversion
                                         in the iterative subspace
                                         using   7 DIIS vectors
                                         safer DIIS on
  Preconditioner : FULL_KINETIC        : inversion of T + eS
  Precond_solver : DEFAULT
  stepsize       :    0.15000000                  energy_gap     :    0.20000000
  eps_taylor     :   0.10000E-15                  max_taylor     :             4
  ----------------------------------- OT ---------------------------------------

  Step     Update method      Time    Convergence         Total energy    Change
  ------------------------------------------------------------------------------
     1 OT DIIS     0.15E+00    0.2     0.00018187     -1101.0453213821 -1.10E+03
     2 OT DIIS     0.15E+00    0.2     0.00012503     -1101.0480054190 -2.68E-03
     3 OT DIIS     0.15E+00    0.2     0.00007517     -1101.0503828145 -2.38E-03
     4 OT DIIS     0.15E+00    0.2     0.00005150     -1101.0514777106 -1.09E-03
     5 OT DIIS     0.15E+00    0.2     0.00002882     -1101.0522243706 -7.47E-04
     6 OT DIIS     0.15E+00    0.2     0.00001712     -1101.0524515284 -2.27E-04
     7 OT DIIS     0.15E+00    0.2     0.00000972     -1101.0525297372 -7.82E-05

  *** SCF run converged in     7 steps ***


  Electronic density on regular grids:       -512.0000014194       -0.0000014194
  Core density on regular grids:              511.9999999954       -0.0000000046
  Total charge density on r-space grids:       -0.0000014240
  Total charge density g-space grids:          -0.0000014240

  Overlap energy of the core charge distribution:               0.00000508717620
  Self energy of the core charge distribution:              -2805.30499493854950
  Core Hamiltonian energy:                                    823.99099498802173
  Hartree energy:                                            1146.19319011613061
  Exchange-correlation energy:                               -265.93172499001759

  Total energy:                                             -1101.05252973723850

 ENERGY| Total FORCE_EVAL ( QS ) energy (a.u.):            -1101.052553905901505


 *******************************************************************************
 ENSEMBLE TYPE                =                                              NVE
 STEP NUMBER                  =                                                2
 TIME [fs]                    =                                         1.000000
 CONSERVED QUANTITY [hartree] =                              -0.110076574941E+04

                                              INSTANTANEOUS             AVERAGES
 CPU TIME [s]                 =                        1.48                 7.43
 ENERGY DRIFT PER ATOM [K]    =         -0.113978549311E+02  -0.569892746554E+01
 POTENTIAL ENERGY[hartree]    =         -0.110105255391E+04  -0.110104592173E+04
 KINETIC ENERGY [hartree]     =          0.286804492826E+00   0.280276692170E+00
 TEMPERATURE [K]              =                     316.110              308.915
 *******************************************************************************


 Number of electrons:                                                        512
 Number of occupied orbitals:                                                256
 Number of molecular orbitals:                                               256

 Number of orbital functions:                                               2560
 Number of independent orbital functions:                                   2560

 Extrapolation method: PS Nth order


 SCF WAVEFUNCTION OPTIMIZATION

  ----------------------------------- OT ---------------------------------------
  Minimizer      : DIIS                : direct inversion
                                         in the iterative subspace
                                         using   7 DIIS vectors
                                         safer DIIS on
  Preconditioner : FULL_KINETIC        : inversion of T + eS
  Precond_solver : DEFAULT
  stepsize       :    0.15000000                  energy_gap     :    0.20000000
  eps_taylor     :   0.10000E-15                  max_taylor     :             4
  ----------------------------------- OT ---------------------------------------

  Step     Update method      Time    Convergence         Total energy    Change
  ------------------------------------------------------------------------------
     1 OT DIIS     0.15E+00    0.2     0.00016599     -1101.0673401807 -1.10E+03
     2 OT DIIS     0.15E+00    0.2     0.00011755     -1101.0696106474 -2.27E-03
     3 OT DIIS     0.15E+00    0.2     0.00007010     -1101.0718403937 -2.23E-03
     4 OT DIIS     0.15E+00    0.2     0.00004686     -1101.0728159792 -9.76E-04
     5 OT DIIS     0.15E+00    0.2     0.00002506     -1101.0734352745 -6.19E-04
     6 OT DIIS     0.15E+00    0.2     0.00001526     -1101.0735929641 -1.58E-04
     7 OT DIIS     0.15E+00    0.2     0.00000857     -1101.0736544803 -6.15E-05

  *** SCF run converged in     7 steps ***


  Electronic density on regular grids:       -512.0000013333       -0.0000013333
  Core density on regular grids:              511.9999999979       -0.0000000021
  Total charge density on r-space grids:       -0.0000013354
  Total charge density g-space grids:          -0.0000013354

  Overlap energy of the core charge distribution:               0.00000421676059
  Self energy of the core charge distribution:              -2805.30499493854950
  Core Hamiltonian energy:                                    822.43891721576313
  Hartree energy:                                            1147.30180931056839
  Exchange-correlation energy:                               -265.50939028486277

  Total energy:                                             -1101.07365448032010

 ENERGY| Total FORCE_EVAL ( QS ) energy (a.u.):            -1101.073673404312103


 *******************************************************************************
 ENSEMBLE TYPE                =                                              NVE
 STEP NUMBER                  =                                                3
 TIME [fs]                    =                                         1.500000
 CONSERVED QUANTITY [hartree] =                              -0.110076623801E+04

                                              INSTANTANEOUS             AVERAGES
 CPU TIME [s]                 =                        1.51                 5.46
 ENERGY DRIFT PER ATOM [K]    =         -0.122014235392E+02  -0.786642615676E+01
 POTENTIAL ENERGY[hartree]    =         -0.110107367340E+04  -0.110105517229E+04
 KINETIC ENERGY [hartree]     =          0.307435398585E+00   0.289329594308E+00
 TEMPERATURE [K]              =                     338.849              318.893
 *******************************************************************************


 Number of electrons:                                                        512
 Number of occupied orbitals:                                                256
 Number of molecular orbitals:                                               256

 Number of orbital functions:                                               2560
 Number of independent orbital functions:                                   2560

 Extrapolation method: PS Nth order


 SCF WAVEFUNCTION OPTIMIZATION

  ----------------------------------- OT ---------------------------------------
  Minimizer      : DIIS                : direct inversion
                                         in the iterative subspace
                                         using   7 DIIS vectors
                                         safer DIIS on
  Preconditioner : FULL_KINETIC        : inversion of T + eS
  Precond_solver : DEFAULT
  stepsize       :    0.15000000                  energy_gap     :    0.20000000
  eps_taylor     :   0.10000E-15                  max_taylor     :             4
  ----------------------------------- OT ---------------------------------------

  Step     Update method      Time    Convergence         Total energy    Change
  ------------------------------------------------------------------------------
     1 OT DIIS     0.15E+00    0.2     0.00016900     -1101.0882815791 -1.10E+03
     2 OT DIIS     0.15E+00    0.2     0.00012004     -1101.0906392119 -2.36E-03
     3 OT DIIS     0.15E+00    0.2     0.00006991     -1101.0929761670 -2.34E-03
     4 OT DIIS     0.15E+00    0.2     0.00004370     -1101.0939498196 -9.74E-04
     5 OT DIIS     0.15E+00    0.2     0.00002172     -1101.0944515377 -5.02E-04
     6 OT DIIS     0.15E+00    0.2     0.00001364     -1101.0945537971 -1.02E-04
     7 OT DIIS     0.15E+00    0.2     0.00000750     -1101.0946004838 -4.67E-05

  *** SCF run converged in     7 steps ***


  Electronic density on regular grids:       -512.0000012177       -0.0000012177
  Core density on regular grids:              512.0000000002        0.0000000002
  Total charge density on r-space grids:       -0.0000012176
  Total charge density g-space grids:          -0.0000012176

  Overlap energy of the core charge distribution:               0.00000308048338
  Self energy of the core charge distribution:              -2805.30499493854950
  Core Hamiltonian energy:                                    820.48664268915832
  Hartree energy:                                            1148.70443612235067
  Exchange-correlation energy:                               -264.98068743720501

  Total energy:                                             -1101.09460048376195

 ENERGY| Total FORCE_EVAL ( QS ) energy (a.u.):            -1101.094614859847752


 *******************************************************************************
 ENSEMBLE TYPE                =                                              NVE
 STEP NUMBER                  =                                                4
 TIME [fs]                    =                                         2.000000
 CONSERVED QUANTITY [hartree] =                              -0.110076681835E+04

                                              INSTANTANEOUS             AVERAGES
 CPU TIME [s]                 =                        1.51                 4.47
 ENERGY DRIFT PER ATOM [K]    =         -0.131558942401E+02  -0.918879317759E+01
 POTENTIAL ENERGY[hartree]    =         -0.110109461486E+04  -0.110106503293E+04
 KINETIC ENERGY [hartree]     =          0.327796508688E+00   0.298946322903E+00
 TEMPERATURE [K]              =                     361.291              329.493
 *******************************************************************************


 Number of electrons:                                                        512
 Number of occupied orbitals:                                                256
 Number of molecular orbitals:                                               256

 Number of orbital functions:                                               2560
 Number of independent orbital functions:                                   2560

 Extrapolation method: PS Nth order


 SCF WAVEFUNCTION OPTIMIZATION

  ----------------------------------- OT ---------------------------------------
  Minimizer      : DIIS                : direct inversion
                                         in the iterative subspace
                                         using   7 DIIS vectors
                                         safer DIIS on
  Preconditioner : FULL_KINETIC        : inversion of T + eS
  Precond_solver : DEFAULT
  stepsize       :    0.15000000                  energy_gap     :    0.20000000
  eps_taylor     :   0.10000E-15                  max_taylor     :             4
  ----------------------------------- OT ---------------------------------------

  Step     Update method      Time    Convergence         Total energy    Change
  ------------------------------------------------------------------------------
     1 OT DIIS     0.15E+00    0.2     0.00006426     -1101.1044110236 -1.10E+03
     2 OT DIIS     0.15E+00    0.2     0.00005315     -1101.1047787984 -3.68E-04
     3 OT DIIS     0.15E+00    0.2     0.00003232     -1101.1054483798 -6.70E-04
     4 OT DIIS     0.15E+00    0.2     0.00002194     -1101.1057147872 -2.66E-04
     5 OT DIIS     0.15E+00    0.2     0.00001212     -1101.1058730945 -1.58E-04
     6 OT DIIS     0.15E+00    0.2     0.00000783     -1101.1059135973 -4.05E-05

  *** SCF run converged in     6 steps ***


  Electronic density on regular grids:       -512.0000010688       -0.0000010688
  Core density on regular grids:              511.9999999989       -0.0000000011
  Total charge density on r-space grids:       -0.0000010699
  Total charge density g-space grids:          -0.0000010699

  Overlap energy of the core charge distribution:               0.00000200945111
  Self energy of the core charge distribution:              -2805.30499493854950
  Core Hamiltonian energy:                                    818.39013739171071
  Hartree energy:                                            1150.21806252093347
  Exchange-correlation energy:                               -264.40912058081028

  Total energy:                                             -1101.10591359726459

 ENERGY| Total FORCE_EVAL ( QS ) energy (a.u.):            -1101.105932128856239


 *******************************************************************************
 ENSEMBLE TYPE                =                                              NVE
 STEP NUMBER                  =                                                5
 TIME [fs]                    =                                         2.500000
 CONSERVED QUANTITY [hartree] =                              -0.110076715532E+04

                                              INSTANTANEOUS             AVERAGES
 CPU TIME [s]                 =                        1.42                 3.86
 ENERGY DRIFT PER ATOM [K]    =         -0.137100851621E+02  -0.100930515745E+02
 POTENTIAL ENERGY[hartree]    =         -0.110110593213E+04  -0.110107321277E+04
 KINETIC ENERGY [hartree]     =          0.338776813796E+00   0.306912421082E+00
 TEMPERATURE [K]              =                     373.393              338.273
 *******************************************************************************


 Number of electrons:                                                        512
 Number of occupied orbitals:                                                256
 Number of molecular orbitals:                                               256

 Number of orbital functions:                                               2560
 Number of independent orbital functions:                                   2560

 Extrapolation method: PS Nth order


 SCF WAVEFUNCTION OPTIMIZATION

  ----------------------------------- OT ---------------------------------------
  Minimizer      : DIIS                : direct inversion
                                         in the iterative subspace
                                         using   7 DIIS vectors
                                         safer DIIS on
  Preconditioner : FULL_KINETIC        : inversion of T + eS
  Precond_solver : DEFAULT
  stepsize       :    0.15000000                  energy_gap     :    0.20000000
  eps_taylor     :   0.10000E-15                  max_taylor     :             4
  ----------------------------------- OT ---------------------------------------

  Step     Update method      Time    Convergence         Total energy    Change
  ------------------------------------------------------------------------------
     1 OT DIIS     0.15E+00    0.2     0.00004706     -1101.1011339815 -1.10E+03
     2 OT DIIS     0.15E+00    0.2     0.00003814     -1101.1013293809 -1.95E-04
     3 OT DIIS     0.15E+00    0.2     0.00002079     -1101.1016568934 -3.28E-04
     4 OT DIIS     0.15E+00    0.2     0.00001223     -1101.1017643462 -1.07E-04
     5 OT DIIS     0.15E+00    0.2     0.00000730     -1101.1018023382 -3.80E-05

  *** SCF run converged in     5 steps ***


  Electronic density on regular grids:       -512.0000009008       -0.0000009008
  Core density on regular grids:              511.9999999941       -0.0000000059
  Total charge density on r-space grids:       -0.0000009067
  Total charge density g-space grids:          -0.0000009067

  Overlap energy of the core charge distribution:               0.00000123724779
  Self energy of the core charge distribution:              -2805.30499493854950
  Core Hamiltonian energy:                                    816.35636953443009
  Hartree energy:                                            1151.70037309180589
  Exchange-correlation energy:                               -263.85355126310156

  Total energy:                                             -1101.10180233816709

 ENERGY| Total FORCE_EVAL ( QS ) energy (a.u.):            -1101.101815178019933


 *******************************************************************************
 ENSEMBLE TYPE                =                                              NVE
 STEP NUMBER                  =                                                6
 TIME [fs]                    =                                         3.000000
 CONSERVED QUANTITY [hartree] =                              -0.110076702437E+04

                                              INSTANTANEOUS             AVERAGES
 CPU TIME [s]                 =                        1.17                 3.41
 ENERGY DRIFT PER ATOM [K]    =         -0.134947243293E+02  -0.106599970336E+02
 POTENTIAL ENERGY[hartree]    =         -0.110110181518E+04  -0.110107797984E+04
 KINETIC ENERGY [hartree]     =          0.334790808494E+00   0.311558818984E+00
 TEMPERATURE [K]              =                     369.000              343.394
 *******************************************************************************


 Number of electrons:                                                        512
 Number of occupied orbitals:                                                256
 Number of molecular orbitals:                                               256

 Number of orbital functions:                                               2560
 Number of independent orbital functions:                                   2560

 Extrapolation method: PS Nth order


 SCF WAVEFUNCTION OPTIMIZATION

  ----------------------------------- OT ---------------------------------------
  Minimizer      : DIIS                : direct inversion
                                         in the iterative subspace
                                         using   7 DIIS vectors
                                         safer DIIS on
  Preconditioner : FULL_KINETIC        : inversion of T + eS
  Precond_solver : DEFAULT
  stepsize       :    0.15000000                  energy_gap     :    0.20000000
  eps_taylor     :   0.10000E-15                  max_taylor     :             4
  ----------------------------------- OT ---------------------------------------

  Step     Update method      Time    Convergence         Total energy    Change
  ------------------------------------------------------------------------------
     1 OT DIIS     0.15E+00    0.2     0.00004011     -1101.0829342809 -1.10E+03
     2 OT DIIS     0.15E+00    0.2     0.00003295     -1101.0830775657 -1.43E-04
     3 OT DIIS     0.15E+00    0.2     0.00001490     -1101.0833518754 -2.74E-04
     4 OT DIIS     0.15E+00    0.2     0.00000897     -1101.0834071080 -5.52E-05

  *** SCF run converged in     4 steps ***


  Electronic density on regular grids:       -512.0000007415       -0.0000007415
  Core density on regular grids:              511.9999999906       -0.0000000094
  Total charge density on r-space grids:       -0.0000007508
  Total charge density g-space grids:          -0.0000007508

  Overlap energy of the core charge distribution:               0.00000077877949
  Self energy of the core charge distribution:              -2805.30499493854950
  Core Hamiltonian energy:                                    814.58618751198173
  Hartree energy:                                            1153.00177219569332
  Exchange-correlation energy:                               -263.36637265588911

  Total energy:                                             -1101.08340710798416

 ENERGY| Total FORCE_EVAL ( QS ) energy (a.u.):            -1101.083423184810727


 *******************************************************************************
 ENSEMBLE TYPE                =                                              NVE
 STEP NUMBER                  =                                                7
 TIME [fs]                    =                                         3.500000
 CONSERVED QUANTITY [hartree] =                              -0.110076647588E+04

                                              INSTANTANEOUS             AVERAGES
 CPU TIME [s]                 =                        1.09                 3.08
 ENERGY DRIFT PER ATOM [K]    =         -0.125926396995E+02  -0.109360888431E+02
 POTENTIAL ENERGY[hartree]    =         -0.110108342318E+04  -0.110107875746E+04
 KINETIC ENERGY [hartree]     =          0.316947308490E+00   0.312328603199E+00
 TEMPERATURE [K]              =                     349.333              344.242
 *******************************************************************************


 Number of electrons:                                                        512
 Number of occupied orbitals:                                                256
 Number of molecular orbitals:                                               256

 Number of orbital functions:                                               2560
 Number of independent orbital functions:                                   2560

 Extrapolation method: PS Nth order


 SCF WAVEFUNCTION OPTIMIZATION

  ----------------------------------- OT ---------------------------------------
  Minimizer      : DIIS                : direct inversion
                                         in the iterative subspace
                                         using   7 DIIS vectors
                                         safer DIIS on
  Preconditioner : FULL_KINETIC        : inversion of T + eS
  Precond_solver : DEFAULT
  stepsize       :    0.15000000                  energy_gap     :    0.20000000
  eps_taylor     :   0.10000E-15                  max_taylor     :             4
  ----------------------------------- OT ---------------------------------------

  Step     Update method      Time    Convergence         Total energy    Change
  ------------------------------------------------------------------------------
     1 OT DIIS     0.15E+00    0.2     0.00003934     -1101.0575993375 -1.10E+03
     2 OT DIIS     0.15E+00    0.2     0.00003220     -1101.0577372339 -1.38E-04
     3 OT DIIS     0.15E+00    0.2     0.00001302     -1101.0580145434 -2.77E-04
     4 OT DIIS     0.15E+00    0.2     0.00000937     -1101.0580508352 -3.63E-05

  *** SCF run converged in     4 steps ***


  Electronic density on regular grids:       -512.0000006088       -0.0000006088
  Core density on regular grids:              511.9999999927       -0.0000000073
  Total charge density on r-space grids:       -0.0000006162
  Total charge density g-space grids:          -0.0000006162

  Overlap energy of the core charge distribution:               0.00000054143077
  Self energy of the core charge distribution:              -2805.30499493854950
  Core Hamiltonian energy:                                    813.21035139300079
  Hartree energy:                                            1154.02258427295351
  Exchange-correlation energy:                               -262.98599210403256

  Total energy:                                             -1101.05805083519681

 ENERGY| Total FORCE_EVAL ( QS ) energy (a.u.):            -1101.058072647107565


 *******************************************************************************
 ENSEMBLE TYPE                =                                              NVE
 STEP NUMBER                  =                                                8
 TIME [fs]                    =                                         4.000000
 CONSERVED QUANTITY [hartree] =                              -0.110076580471E+04

                                              INSTANTANEOUS             AVERAGES
 CPU TIME [s]                 =                        1.00                 2.82
 ENERGY DRIFT PER ATOM [K]    =         -0.114888012551E+02  -0.110051778946E+02
 POTENTIAL ENERGY[hartree]    =         -0.110105807265E+04  -0.110107617186E+04
 KINETIC ENERGY [hartree]     =          0.292267936072E+00   0.309821019808E+00
 TEMPERATURE [K]              =                     322.132              341.479
 *******************************************************************************


 Number of electrons:                                                        512
 Number of occupied orbitals:                                                256
 Number of molecular orbitals:                                               256

 Number of orbital functions:                                               2560
 Number of independent orbital functions:                                   2560

 Extrapolation method: PS Nth order


 SCF WAVEFUNCTION OPTIMIZATION

  ----------------------------------- OT ---------------------------------------
  Minimizer      : DIIS                : direct inversion
                                         in the iterative subspace
                                         using   7 DIIS vectors
                                         safer DIIS on
  Preconditioner : FULL_KINETIC        : inversion of T + eS
  Precond_solver : DEFAULT
  stepsize       :    0.15000000                  energy_gap     :    0.20000000
  eps_taylor     :   0.10000E-15                  max_taylor     :             4
  ----------------------------------- OT ---------------------------------------

  Step     Update method      Time    Convergence         Total energy    Change
  ------------------------------------------------------------------------------
     1 OT DIIS     0.15E+00    0.2     0.00004063     -1101.0348904328 -1.10E+03
     2 OT DIIS     0.15E+00    0.2     0.00003307     -1101.0350368939 -1.46E-04
     3 OT DIIS     0.15E+00    0.2     0.00001525     -1101.0353096358 -2.73E-04
     4 OT DIIS     0.15E+00    0.2     0.00001093     -1101.0353590214 -4.94E-05
     5 OT DIIS     0.15E+00    0.2     0.00000786     -1101.0353880728 -2.91E-05

  *** SCF run converged in     5 steps ***


  Electronic density on regular grids:       -512.0000004818       -0.0000004818
  Core density on regular grids:              511.9999999968       -0.0000000032
  Total charge density on r-space grids:       -0.0000004851
  Total charge density g-space grids:          -0.0000004851

  Overlap energy of the core charge distribution:               0.00000043858940
  Self energy of the core charge distribution:              -2805.30499493854950
  Core Hamiltonian energy:                                    812.31303126915691
  Hartree energy:                                            1154.69416749629363
  Exchange-correlation energy:                               -262.73759233825160

  Total energy:                                             -1101.03538807276118

 ENERGY| Total FORCE_EVAL ( QS ) energy (a.u.):            -1101.035410333149457


 *******************************************************************************
 ENSEMBLE TYPE                =                                              NVE
 STEP NUMBER                  =                                                9
 TIME [fs]                    =                                         4.500000
 CONSERVED QUANTITY [hartree] =                              -0.110076529419E+04

                                              INSTANTANEOUS             AVERAGES
 CPU TIME [s]                 =                        1.15                 2.63
 ENERGY DRIFT PER ATOM [K]    =         -0.106491652281E+02  -0.109656209316E+02
 POTENTIAL ENERGY[hartree]    =         -0.110103541033E+04  -0.110107164280E+04
 KINETIC ENERGY [hartree]     =          0.270116144786E+00   0.305409367028E+00
 TEMPERATURE [K]              =                     297.717              336.616
 *******************************************************************************


 Number of electrons:                                                        512
 Number of occupied orbitals:                                                256
 Number of molecular orbitals:                                               256

 Number of orbital functions:                                               2560
 Number of independent orbital functions:                                   2560

 Extrapolation method: PS Nth order


 SCF WAVEFUNCTION OPTIMIZATION

  ----------------------------------- OT ---------------------------------------
  Minimizer      : DIIS                : direct inversion
                                         in the iterative subspace
                                         using   7 DIIS vectors
                                         safer DIIS on
  Preconditioner : FULL_KINETIC        : inversion of T + eS
  Precond_solver : DEFAULT
  stepsize       :    0.15000000                  energy_gap     :    0.20000000
  eps_taylor     :   0.10000E-15                  max_taylor     :             4
  ----------------------------------- OT ---------------------------------------

  Step     Update method      Time    Convergence         Total energy    Change
  ------------------------------------------------------------------------------
     1 OT DIIS     0.15E+00    0.2     0.00004272     -1101.0227185823 -1.10E+03
     2 OT DIIS     0.15E+00    0.2     0.00003547     -1101.0228816341 -1.63E-04
     3 OT DIIS     0.15E+00    0.2     0.00001954     -1101.0231905787 -3.09E-04
     4 OT DIIS     0.15E+00    0.2     0.00001351     -1101.0232865832 -9.60E-05
     5 OT DIIS     0.15E+00    0.2     0.00000909     -1101.0233423692 -5.58E-05

  *** SCF run converged in     5 steps ***


  Electronic density on regular grids:       -512.0000003316       -0.0000003316
  Core density on regular grids:              511.9999999981       -0.0000000019
  Total charge density on r-space grids:       -0.0000003335
  Total charge density g-space grids:          -0.0000003335

  Overlap energy of the core charge distribution:               0.00000042270337
  Self energy of the core charge distribution:              -2805.30499493854950
  Core Hamiltonian energy:                                    811.91272338365343
  Hartree energy:                                            1154.99784951712809
  Exchange-correlation energy:                               -262.62892075411992

  Total energy:                                             -1101.02334236918432

 ENERGY| Total FORCE_EVAL ( QS ) energy (a.u.):            -1101.023374986880526


 *******************************************************************************
 ENSEMBLE TYPE                =                                              NVE
 STEP NUMBER                  =                                               10
 TIME [fs]                    =                                         5.000000
 CONSERVED QUANTITY [hartree] =                              -0.110076505584E+04

                                              INSTANTANEOUS             AVERAGES
 CPU TIME [s]                 =                        1.15                 2.49
 ENERGY DRIFT PER ATOM [K]    =         -0.102571583064E+02  -0.108947746691E+02
 POTENTIAL ENERGY[hartree]    =         -0.110102337499E+04  -0.110106681602E+04
 KINETIC ENERGY [hartree]     =          0.258319149916E+00   0.300700345317E+00
 TEMPERATURE [K]              =                     284.714              331.426
 *******************************************************************************


 -------------------------------------------------------------------------------
 -                                                                             -
 -                                DBCSR STATISTICS                             -
 -                                                                             -
 -------------------------------------------------------------------------------
 COUNTER                                    TOTAL       BLAS       SMM       ACC
 flops     9 x    32 x    32            207618048     100.0%      0.0%      0.0%
 flops    22 x    32 x    32            253755392     100.0%      0.0%      0.0%
 flops    32 x    32 x    32          26877100032     100.0%      0.0%      0.0%
 flops     9 x     9 x    32          44168260608     100.0%      0.0%      0.0%
 flops    22 x     9 x    32          53835724800     100.0%      0.0%      0.0%
 flops     9 x    22 x    32          53885500416     100.0%      0.0%      0.0%
 flops    22 x    22 x    32          67007283200     100.0%      0.0%      0.0%
 flops    32 x    32 x   160         141264158720     100.0%      0.0%      0.0%
 flops   160 x    32 x    32         173811957760     100.0%      0.0%      0.0%
 flops     9 x    32 x     9         185405884416     100.0%      0.0%      0.0%
 flops    22 x    32 x     9         227871249408     100.0%      0.0%      0.0%
 flops     9 x    32 x    22         227871249408     100.0%      0.0%      0.0%
 flops    22 x    32 x    22         279130931200     100.0%      0.0%      0.0%
 flops   160 x    32 x   160         399297740800     100.0%      0.0%      0.0%
 flops inhomo. stacks                           0       0.0%      0.0%      0.0%
 flops total                         1.880888E+12     100.0%      0.0%      0.0%
 flops max/rank                     15.293271E+09     100.0%      0.0%      0.0%
 matmuls inhomo. stacks                         0       0.0%      0.0%      0.0%
 matmuls total                          101557048     100.0%      0.0%      0.0%
 number of processed stacks               4926576     100.0%      0.0%      0.0%
 average stack size                                    20.6       0.0       0.0
 marketing flops                     2.107587E+12
 -------------------------------------------------------------------------------
 # multiplications                           2286
 max memory usage/rank             241.692672E+06
 # max total images/rank                        1
 # max 3D layers                                1
 # MPI messages exchanged                17556480
 MPI messages size (bytes):
  total size                       485.215142E+09
  min size                           0.000000E+00
  max size                         204.800000E+03
  average size                      27.637383E+03
 MPI breakdown and total messages size (bytes):
             size <=      128            10119000                        0
       128 < size <=     8192             2036520              16683171840
      8192 < size <=    32768                   0                        0
     32768 < size <=   131072             3888000             159252480000
    131072 < size <=  4194304             1512960             309275872320
   4194304 < size <= 16777216                   0                        0
  16777216 < size                               0                        0
 -------------------------------------------------------------------------------
 
 MEMORY| Estimated peak process memory [MiB]                                 231

 -------------------------------------------------------------------------------
 -                                                                             -
 -                         MESSAGE PASSING PERFORMANCE                         -
 -                                                                             -
 -------------------------------------------------------------------------------

 ROUTINE             CALLS      AVE VOLUME [Bytes]
 MP_Group              158
 MP_Bcast             3641                  51556.
 MP_Allreduce        15241                    226.
 MP_Sync              1482
 MP_Alltoall         10760
 MP_ISendRecv       121380                   2020.
 MP_Wait            466086
 MP_comm_split          50
 MP_ISend           177358                  17319.
 MP_IRecv           177358                  17043.
 MP_Memory           91676
 -------------------------------------------------------------------------------


 -------------------------------------------------------------------------------
 -                                                                             -
 -                           R E F E R E N C E S                               -
 -                                                                             -
 -------------------------------------------------------------------------------
 
 CP2K version 5.1, the CP2K developers group (2017).
 CP2K is freely available from https://www.cp2k.org/ .

 Schuett, Ole; Messmer, Peter; Hutter, Juerg; VandeVondele, Joost. 
 Electronic Structure Calculations on Graphics Processing Units, John Wiley & Sons, Ltd, 173-190 (2016). 
 GPU-Accelerated Sparse Matrix-Matrix Multiplication for Linear Scaling Density Functional Theory.
 http://dx.doi.org/10.1002/9781118670712.ch8


 Borstnik, U; VandeVondele, J; Weber, V; Hutter, J. 
 PARALLEL COMPUTING, 40 (5-6), 47-58 (2014). 
 Sparse matrix multiplication: The distributed block-compressed sparse
 row library.
 http://dx.doi.org/10.1016/j.parco.2014.03.012


 Hutter, J; Iannuzzi, M; Schiffmann, F; VandeVondele, J. 
 WILEY INTERDISCIPLINARY REVIEWS-COMPUTATIONAL MOLECULAR SCIENCE, 4 (1), 15-25 (2014). 
 CP2K: atomistic simulations of condensed matter systems.
 http://dx.doi.org/10.1002/wcms.1159


 Krack, M. 
 THEORETICAL CHEMISTRY ACCOUNTS, 114 (1-3), 145-152 (2005). 
 Pseudopotentials for H to Kr optimized for gradient-corrected
 exchange-correlation functionals.
 http://dx.doi.org/10.1007/s00214-005-0655-y


 VandeVondele, J; Krack, M; Mohamed, F; Parrinello, M; Chassaing, T;
 Hutter, J. COMPUTER PHYSICS COMMUNICATIONS, 167 (2), 103-128 (2005). 
 QUICKSTEP: Fast and accurate density functional calculations using a
 mixed Gaussian and plane waves approach.
 http://dx.doi.org/10.1016/j.cpc.2004.12.014


 Frigo, M; Johnson, SG. 
 PROCEEDINGS OF THE IEEE, 93 (2), 216-231 (2005). 
 The design and implementation of FFTW3.
 http://dx.doi.org/10.1109/JPROC.2004.840301


 VandeVondele, J; Hutter, J. 
 JOURNAL OF CHEMICAL PHYSICS, 118 (10), 4365-4369 (2003). 
 An efficient orbital transformation method for electronic structure
 calculations.
 http://dx.doi.org/10.1063/1.1543154


 Hartwigsen, C; Goedecker, S; Hutter, J. 
 PHYSICAL REVIEW B, 58 (7), 3641-3662 (1998). 
 Relativistic separable dual-space Gaussian pseudopotentials from H to Rn.
 http://dx.doi.org/10.1103/PhysRevB.58.3641


 Lippert, G; Hutter, J; Parrinello, M. 
 MOLECULAR PHYSICS, 92 (3), 477-487 (1997). 
 A hybrid Gaussian and plane wave density functional scheme.
 http://dx.doi.org/10.1080/002689797170220


 Goedecker, S; Teter, M; Hutter, J. 
 PHYSICAL REVIEW B, 54 (3), 1703-1710 (1996). 
 Separable dual-space Gaussian pseudopotentials.
 http://dx.doi.org/10.1103/PhysRevB.54.1703


 -------------------------------------------------------------------------------
 -                                                                             -
 -                                T I M I N G                                  -
 -                                                                             -
 -------------------------------------------------------------------------------
 SUBROUTINE                       CALLS  ASD         SELF TIME        TOTAL TIME
                                MAXIMUM       AVERAGE  MAXIMUM  AVERAGE  MAXIMUM
 CP2K                                 1  1.0    0.053    0.077   25.428   25.432
 qs_mol_dyn_low                       1  2.0    0.010    0.021   24.889   24.895
 qs_forces                           11  3.9    0.005    0.019   24.781   24.795
 qs_energies                         11  4.9    0.008    0.029   23.657   23.670
 scf_env_do_scf                      11  5.9    0.001    0.005   21.408   21.408
 scf_env_do_scf_inner_loop          108  6.5    0.005    0.012   19.596   19.606
 velocity_verlet                     10  3.0    0.005    0.009   13.125   13.130
 qs_scf_new_mos                     108  7.5    0.001    0.001    8.661    8.752
 qs_scf_loop_do_ot                  108  8.5    0.001    0.001    8.660    8.751
 ot_scf_mini                        108  9.5    0.005    0.009    8.321    8.404
 rebuild_ks_matrix                  119  8.3    0.000    0.001    7.217    7.300
 qs_ks_build_kohn_sham_matrix       119  9.3    0.014    0.028    7.217    7.299
 dbcsr_multiply_generic            2286 12.5    0.096    0.111    6.946    7.087
 qs_ks_update_qs_env                119  7.6    0.001    0.003    6.432    6.505
 sum_up_and_integrate               119 10.3    0.007    0.012    6.055    6.060
 integrate_v_rspace                 119 11.3    2.322    2.489    6.048    6.054
 qs_rho_update_rho                  119  7.7    0.001    0.001    5.693    5.763
 calculate_rho_elec                 119  8.7    1.852    1.966    5.693    5.763
 ot_mini                            108 10.5    0.002    0.005    4.098    4.181
 multiply_cannon                   2286 13.5    0.381    0.410    3.672    4.072
 rs_pw_transfer                     974 11.9    0.007    0.009    3.892    3.980
 qs_ot_get_derivative               108 11.5    0.001    0.002    3.290    3.370
 qs_ot_get_p                        119 10.4    0.001    0.010    3.146    3.235
 mp_waitall_1                    455694 15.3    2.319    3.199    2.319    3.199
 density_rs2pw                      119  9.7    0.004    0.004    2.613    2.701
 mp_alltoall_d11v                  2141 13.8    2.550    2.701    2.550    2.701
 potential_pw2rs                    119 12.3    0.004    0.004    2.575    2.583
 rs_distribute_matrix               249 10.9    0.088    0.120    2.136    2.314
 mp_waitany                       10392 13.9    2.088    2.250    2.088    2.250
 multiply_cannon_metrocomm3       36576 14.5    0.087    0.096    0.886    2.199
 make_m2s                          4572 13.5    0.101    0.108    1.797    1.941
 init_scf_loop                       11  6.9    0.002    0.011    1.778    1.791
 pw_transfer                       1439 11.6    0.048    0.051    1.641    1.670
 make_images                       4572 14.5    0.135    0.143    1.524    1.664
 fft_wrap_pw1pw2                   1201 12.6    0.005    0.006    1.586    1.614
 init_scf_run                        11  5.9    0.001    0.017    1.438    1.439
 scf_env_initial_rho_setup           11  6.9    0.003    0.024    1.437    1.439
 qs_ot_p2m_diag                      50 11.0    0.002    0.005    1.316    1.326
 arnoldi_extremal                   119 11.4    0.002    0.013    1.210    1.311
 arnoldi_normal_ev                  119 12.4    0.003    0.012    1.208    1.310
 qs_ot_get_derivative_diag           49 12.0    0.001    0.002    1.200    1.237
 multiply_cannon_metrocomm1       36576 14.5    0.088    0.093    0.730    1.231
 build_subspace                     119 13.4    0.006    0.009    1.104    1.185
 multiply_cannon_multrec          36576 14.5    0.541    1.139    0.549    1.146
 cp_dbcsr_syevd                      50 12.0    0.004    0.007    1.130    1.134
 qs_ot_get_derivative_taylor         59 13.0    0.001    0.001    1.069    1.112
 wfi_extrapolate                     11  7.9    0.002    0.026    1.066    1.090
 mp_sum_l                          4051 13.7    0.786    1.080    0.786    1.080
 rs_pw_transfer_PW2RS_50            119 14.3    0.110    0.123    0.929    1.010
 cp_fm_syevd                         50 13.0    0.872    0.906    0.938    0.959
 rs_pw_transfer_RS2PW_50            119 11.7    0.112    0.123    0.900    0.946
 mp_sum_dv                         6497 15.2    0.563    0.937    0.563    0.937
 dbcsr_complete_redistribute        329 12.2    0.032    0.050    0.860    0.897
 prepare_preconditioner              11  7.9    0.000    0.000    0.888    0.897
 make_preconditioner                 11  8.9    0.000    0.001    0.888    0.897
 fft_wrap_pw1pw2_140                487 13.2    0.029    0.038    0.817    0.865
 make_images_sizes                 4572 15.5    0.005    0.007    0.767    0.861
 mp_alltoall_i44                   4572 16.5    0.763    0.856    0.763    0.856
 qs_ks_update_qs_env_forces          11  4.9    0.000    0.000    0.823    0.831
 fft3d_pb                           487 14.2    0.136    0.145    0.768    0.815
 fft3d_ps                           714 15.0    0.028    0.047    0.755    0.803
 mp_bcast_b                        1737 13.6    0.413    0.795    0.413    0.795
 make_full_inverse_cholesky          11  9.9    0.000    0.000    0.781    0.792
 ot_diis_step                       108 11.5    0.006    0.008    0.785    0.788
 cp_fm_syevd_base                    50 14.0    0.024    0.764    0.024    0.764
 dbcsr_matrix_vector_mult          1669 14.0    0.010    0.014    0.346    0.740
 mp_alltoall_z22v                  1688 16.5    0.643    0.696    0.643    0.696
 apply_preconditioner_dbcsr         119 12.6    0.000    0.001    0.628    0.685
 apply_single                       119 13.6    0.000    0.000    0.628    0.685
 dbcsr_col_vec_to_rep_row          1669 15.0    0.006    0.008    0.182    0.664
 multiply_cannon_metrocomm4       34290 14.5    0.086    0.093    0.361    0.664
 rs_pw_transfer_RS2PW_140           130 11.5    0.174    0.200    0.532    0.664
 mp_sum_d                          4133 11.9    0.534    0.656    0.534    0.656
 qs_energies_init_hamiltonians       11  5.9    0.005    0.018    0.630    0.651
 rs_pw_transfer_PW2RS_140           130 13.9    0.212    0.244    0.577    0.635
 mp_allgather_i34                  2286 14.5    0.427    0.628    0.427    0.628
 copy_dbcsr_to_fm                   153 11.3    0.003    0.004    0.583    0.613
 mp_sync                           1482 16.9    0.430    0.606    0.430    0.606
 make_images_data                  4572 15.5    0.062    0.069    0.435    0.592
 qs_env_update_s_mstruct             11  6.9    0.000    0.000    0.478    0.517
 cp_dbcsr_sm_fm_multiply             37  9.5    0.001    0.007    0.510    0.514
 hybrid_alltoall_any               4725 16.4    0.050    0.075    0.336    0.497
 qs_ot_get_orbitals                 108 10.5    0.000    0.000    0.467    0.480
 fft_wrap_pw1pw2_50                 238 14.0    0.003    0.006    0.397    0.456
 copy_fm_to_dbcsr                   176 11.2    0.001    0.006    0.414    0.449
 calculate_dm_sparse                119  9.5    0.001    0.002    0.413    0.446
 mp_irecv_dv                      77378 15.4    0.150    0.420    0.150    0.420
 Gram_Schmidt_ortho_d              1550 14.0    0.001    0.003    0.142    0.403
 mp_isend_dv                      77378 15.4    0.200    0.397    0.200    0.397
 rs_pw_transfer_PW2RS_20            119 14.3    0.181    0.187    0.346    0.381
 yz_to_xz                           357 17.3    0.018    0.034    0.338    0.371
 mp_sum_b                          4022 13.8    0.336    0.366    0.336    0.366
 qs_create_task_list                 11  7.9    0.000    0.000    0.353    0.355
 generate_qs_task_list               11  8.9    0.018    0.025    0.353    0.355
 distribute_tasks                    11  9.9    0.005    0.007    0.334    0.339
 xz_to_yz                           357 14.7    0.015    0.033    0.316    0.335
 cp_fm_cholesky_invert               11 10.9    0.326    0.330    0.326    0.330
 cube_transpose_4                   249 15.8    0.009    0.011    0.268    0.321
 cp_fm_cholesky_decompose            22 10.9    0.294    0.299    0.294    0.299
 mp_bcast_av                        562  1.0    0.016    0.032    0.147    0.296
 dbcsr_trace_a_b_d                 1205 11.9    0.016    0.021    0.210    0.290
 qs_init_subsys                       1  2.0    0.008    0.027    0.271    0.286
 rs_pw_transfer_RS2PW_20            119 11.7    0.122    0.127    0.278    0.286
 cp_dbcsr_sm_fm_multiply_core        37 10.5    0.001    0.015    0.257    0.279
 cube_transpose_3                   238 14.5    0.012    0.015    0.231    0.273
 mp_alltoall_i11v                  1575 13.9    0.221    0.271    0.221    0.271
 dbcsr_finalize                    5856 13.6    0.019    0.032    0.232    0.267
 make_basis_sm                       11  9.8    0.000    0.002    0.257    0.260
 calculate_first_density_matrix       1  7.0    0.002    0.022    0.255    0.260
 multiply_cannon_metrocomm2       34290 14.5    0.087    0.097    0.195    0.260
 mp_alltoall_i22                    627 13.8    0.203    0.259    0.203    0.259
 rs_grid_zero                       736 11.5    0.235    0.258    0.235    0.258
 dbcsr_merge_all                   4927 14.8    0.047    0.065    0.199    0.235
 build_core_hamiltonian_matrix_      11  4.9    0.000    0.000    0.180    0.227
 fft_wrap_pw1pw2_20                 238 14.0    0.002    0.003    0.210    0.221
 transfer_dbcsr_to_fm                11 10.9    0.000    0.000    0.202    0.211
 qs_ot_p2m_taylor                    69 11.7    0.001    0.008    0.164    0.209
 cube_transpose_1                   595 16.2    0.007    0.009    0.083    0.209
 create_local_tasks                  11 10.9    0.002    0.003    0.197    0.198
 reorthogonalize_vectors             10  9.0    0.000    0.000    0.192    0.194
 mp_isend_dm3                      6408 13.9    0.098    0.187    0.098    0.187
 dbcsr_new_transposed               954 13.3    0.008    0.011    0.136    0.184
 rs_pw_transfer_PW2RS_10            119 14.3    0.069    0.074    0.172    0.179
 dbcsr_make_images_dense           3978 14.8    0.057    0.063    0.143    0.173
 dbcsr_redistribute                 145 14.7    0.006    0.007    0.119    0.169
 dbcsr_create_new                 25907 14.8    0.075    0.101    0.142    0.165
 ot_scf_init                         11  7.9    0.001    0.002    0.151    0.164
 fft_wrap_pw1pw2_10                 238 14.0    0.001    0.002    0.157    0.162
 cube_transpose_2                   606 15.1    0.012    0.015    0.101    0.160
 init_qs_kind_set                     1  3.0    0.000    0.000    0.143    0.160
 init_qs_kind                         2  4.0    0.000    0.003    0.143    0.160
 calculate_rho_core                  11  7.9    0.005    0.013    0.123    0.159
 init_orb_basis_set                   2  5.0    0.000    0.002    0.143    0.159
 init_cphi_and_sphi                   2  6.0    0.143    0.159    0.143    0.159
 mp_isendrecv_dv                 121380 14.0    0.143    0.159    0.143    0.159
 mp_bcast_im                        120 14.3    0.079    0.156    0.079    0.156
 cp_dbcsr_plus_fm_fm_t_native        22  8.9    0.000    0.003    0.146    0.155
 rs_pw_transfer_RS2PW_10            119 11.7    0.054    0.057    0.150    0.153
 dbcsr_desymmetrize_deep            153 12.3    0.005    0.007    0.121    0.151
 qs_energies_compute_matrix_w        11  5.9    0.000    0.002    0.144    0.148
 calculate_w_matrix_ot               11  6.9    0.000    0.000    0.144    0.148
 build_core_hamiltonian_matrix       11  6.9    0.003    0.023    0.119    0.147
 build_core_ppl_forces               11  5.9    0.089    0.146    0.089    0.146
 cp_gemm                             81  9.0    0.000    0.000    0.140    0.145
 cp_gemm_fm_gemm                     81 10.0    0.000    0.001    0.139    0.145
 cp_fm_gemm                          81 11.0    0.139    0.144    0.139    0.144
 mp_alltoall_l11v                    11 11.9    0.139    0.142    0.139    0.142
 qs_env_setup                         1  3.0    0.003    0.017    0.116    0.140
 mp_sum_dm                          438  4.9    0.118    0.130    0.118    0.130
 DGKS_ortho_d                      1550 14.0    0.001    0.002    0.096    0.130
 external_control                   118  7.2    0.000    0.001    0.061    0.124
 dbcsr_make_dense_low              5837 15.5    0.033    0.036    0.082    0.123
 arnoldi_init                       119 13.4    0.001    0.006    0.076    0.123
 qs_env_rebuild_pw_env               23  5.3    0.002    0.011    0.105    0.119
 transfer_fm_to_dbcsr                11  9.9    0.000    0.000    0.106    0.119
 pw_env_rebuild                       1  5.0    0.005    0.011    0.103    0.118
 merge_index                       4927 15.8    0.099    0.114    0.099    0.114
 load_balance_distributed            22 10.9    0.000    0.000    0.106    0.109
 mp_bcast_i                         101  2.8    0.043    0.096    0.043    0.096
 make_images_pack                  4572 15.5    0.063    0.085    0.073    0.096
 calculate_ecore_overlap             22  5.9    0.000    0.003    0.054    0.093
 mp_cart_sub                        313 13.3    0.087    0.090    0.087    0.090
 qs_vxc_create                      119 10.3    0.002    0.014    0.077    0.089
 xc_vxc_pw_create                   119 11.3    0.006    0.012    0.075    0.088
 cp_dbcsr_cholesky_decompose         11 12.9    0.042    0.046    0.083    0.087
 mp_maxloc_dv                      1125  1.0    0.080    0.086    0.080    0.086
 create_qs_kind_set                   1  2.0    0.002    0.011    0.050    0.084
 dbcsr_add_d                       1881 12.8    0.002    0.002    0.074    0.084
 dbcsr_add_anytype                 1881 13.8    0.012    0.017    0.073    0.082
 get_fft_scratch                   1202 15.6    0.051    0.070    0.062    0.082
 dbcsr_data_new                   76904 15.5    0.050    0.069    0.062    0.082
 read_qs_kind                         2  3.0    0.018    0.024    0.048    0.082
 mp_sum_iv                          363 11.4    0.059    0.079    0.059    0.079
 mp_bcast_dv                       1719 16.0    0.035    0.074    0.035    0.074
 build_overlap_matrix                22  6.9    0.026    0.052    0.057    0.073
 dbcsr_gershgorin_norm               48 11.0    0.000    0.000    0.040    0.072
 dbcsr_make_dense                  1859 13.9    0.008    0.009    0.056    0.072
 topology_control                     1  2.0    0.009    0.027    0.052    0.070
 build_core_ppl                      11  7.9    0.047    0.069    0.047    0.069
 make_dense_data                   5837 16.5    0.025    0.050    0.032    0.068
 dbcsr_destroy                    24818 14.1    0.040    0.042    0.065    0.067
 dbcsr_cholesky_invert               11 12.9    0.029    0.032    0.066    0.067
 optimize_load_list                  22 11.9    0.000    0.000    0.063    0.066
 fft3d_s                              1  2.0    0.001    0.006    0.048    0.065
 mp_isend_iv                      77680 15.5    0.054    0.062    0.054    0.062
 build_core_ppnl_forces              11  5.9    0.049    0.062    0.049    0.062
 parser_read_line                  2671  4.0    0.001    0.001    0.030    0.061
 calculate_atomic_block_dm            1  8.0    0.017    0.043    0.054    0.061
 parser_read_line_low                 4  5.0    0.002    0.013    0.029    0.061
 setup_buffer_matrices             4572 14.5    0.016    0.027    0.050    0.060
 get_current_loads                  132 11.9    0.003    0.004    0.052    0.060
 dbcsr_data_release              141010 15.9    0.043    0.051    0.051    0.059
 broadcast_input_information          4  6.0    0.000    0.000    0.027    0.059
 dbcsr_make_index_exist           25907 15.8    0.031    0.052    0.037    0.058
 integrate_v_core_rspace             11  7.9    0.004    0.006    0.053    0.058
 connectivity_control                 1  3.0    0.006    0.033    0.029    0.058
 update_particle_set                 20  4.0    0.000    0.000    0.050    0.057
 dbcsr_special_finalize            4572 15.5    0.009    0.013    0.045    0.055
 md_write_output                     11  3.9    0.001    0.036    0.004    0.054
 mp_bcast_i3                         22 12.9    0.033    0.053    0.033    0.053
 dbcsr_copy                        2232 11.8    0.010    0.023    0.039    0.053
 md_output                           10  3.0    0.000    0.002    0.010    0.051
 mp_comm_dup                          8  6.5    0.036    0.050    0.036    0.050
 mp_irecv_dm3                      6408 13.9    0.011    0.050    0.011    0.050
 dbcsr_mm_multrec_init             2286 14.5    0.003    0.006    0.038    0.049
 mp_cart_create                     158 13.2    0.041    0.047    0.041    0.047
 dbcsr_make_undense                1859 13.9    0.019    0.026    0.034    0.047
 mp_max_i                           356  1.6    0.038    0.046    0.038    0.046
 dbcsr_iterator_start             32540 15.7    0.028    0.037    0.035    0.046
 pw_poisson_solve                   119 10.3    0.013    0.015    0.043    0.046
 dbcsr_mm_csr_init                 2286 15.5    0.030    0.040    0.035    0.045
 build_kinetic_matrix                22  6.9    0.031    0.044    0.032    0.045
 quick_finalize                    5218 16.3    0.014    0.017    0.034    0.045
 compute_load_list                   44 11.9    0.012    0.017    0.039    0.043
 xc_rho_set_and_dset_create         119 12.3    0.004    0.014    0.035    0.042
 tree_to_linear_d                  1073 14.6    0.025    0.042    0.025    0.042
 mp_alltoall_l                      143 12.8    0.035    0.042    0.035    0.042
 cp_fm_triangular_multiply           11 10.8    0.037    0.042    0.037    0.042
 mp_sum_partial_im                   22 12.9    0.022    0.042    0.022    0.042
 mp_isend_zv                      20706 17.0    0.012    0.041    0.012    0.041
 evaluate_core_matrix_traces        119  8.3    0.001    0.002    0.037    0.041
 dbcsr_work_create                10112 14.6    0.017    0.036    0.022    0.040
 calculate_ptrace_kp                238  9.3    0.000    0.000    0.037    0.040
 pw_grid_setup                        4  6.0    0.002    0.005    0.039    0.039
 pw_grid_setup_internal               4  7.0    0.001    0.004    0.037    0.039
 topology_generate_bond               1  4.0    0.000    0.000    0.018    0.037
 dbcsr_data_copy_aa2               2816 14.7    0.021    0.037    0.021    0.037
 buffer_matrices_ensure_size       4572 14.5    0.022    0.032    0.026    0.036
 xc_functional_eval                 119 13.3    0.028    0.035    0.028    0.035
 rot_ana                              1  3.0    0.000    0.001    0.015    0.033
 diamat_all                           1  4.0    0.015    0.033    0.015    0.033
 dbcsr_make_dists_dense            1989 13.8    0.021    0.026    0.029    0.033
 topology_generate_bond_3             1  5.0    0.000    0.010    0.008    0.033
 build_fist_neighbor_lists            1  6.0    0.002    0.015    0.008    0.033
 build_neighbor_lists                 1  7.0    0.004    0.032    0.005    0.032
 build_qs_neighbor_lists             11  6.9    0.002    0.014    0.020    0.032
 dbcsr_iterator_stop              32540 15.7    0.021    0.025    0.025    0.032
 topology_generate_bond_2             1  5.0    0.005    0.031    0.005    0.031
 atom_int_setup                       2  9.0    0.008    0.030    0.008    0.030
[...]
 topology_generate_bond_4             1  5.0    0.005    0.022    0.005    0.022
 dbcsr_reserve_blocks               740 14.3    0.010    0.021    0.012    0.022
 build_core_ppnl                     11  7.9    0.017    0.022    0.017    0.022
 mp_allocate_d                    26468 16.7    0.017    0.021    0.017    0.021
 topology_connectivity_pack_3         1  4.0    0.000    0.021    0.000    0.021
 topology_connectivity_pack_4         1  4.0    0.001    0.021    0.001    0.021
 topology_connectivity_pack_11        1  4.0    0.001    0.020    0.001    0.020
 mp_allgather_l                     143 12.8    0.018    0.020    0.018    0.020
 dbcsr_data_copyall                3867 11.4    0.015    0.020    0.015    0.020
 topology_coordinate_pack             1  3.0    0.000    0.000    0.003    0.019
 coordinate_control                   1  3.0    0.000    0.000    0.003    0.019
 coordinate_control_READ_COORDI       1  4.0    0.000    0.014    0.003    0.019
 read_atoms_input                     1  5.0    0.003    0.019    0.003    0.019
 topology_connectivity_pack_14        1  4.0    0.001    0.019    0.001    0.019
 mp_bcast_am                          4  7.0    0.003    0.018    0.005    0.019
 pw_gather_p                        606 14.1    0.013    0.019    0.013    0.019
 scf_post_calculation_gpw            11  5.9    0.002    0.008    0.012    0.019
 fist_neighbor_init                   1  8.0    0.001    0.019    0.001    0.019
 topology_connectivity_pack_12        1  4.0    0.001    0.019    0.001    0.019
 wfs_update                          11  5.9    0.002    0.017    0.005    0.018
 qs_scf_ensure_work_matrices         11  5.9    0.000    0.002    0.007    0.018
 compute_max_radius                   1  6.0    0.016    0.018    0.016    0.018
 topology_connectivity_pack_14_       1  4.0    0.000    0.018    0.000    0.018
 topology_connectivity_pack_10        1  4.0    0.000    0.018    0.000    0.018
 write_available_results             11  6.9    0.001    0.013    0.009    0.018
 dbcsr_get_local_cols              4145 14.1    0.010    0.018    0.010    0.018
 topology_coordinate_pack_2           1  4.0    0.000    0.018    0.000    0.018
 cp_fm_to_fm_matrix                  21  7.9    0.002    0.017    0.002    0.017
 write_trajectory                    44  4.9    0.002    0.011    0.002    0.017
 topology_generate_molecule           1  4.0    0.001    0.017    0.001    0.017
 setup_rec_index_2d                4572 14.5    0.009    0.017    0.009    0.017
 write_mo_dependent_results          11  7.9    0.002    0.017    0.003    0.017
 topology_coordinate_pack_7a          1  4.0    0.001    0.017    0.001    0.017
 pw_scatter_p                       595 15.2    0.011    0.017    0.011    0.017
 atom_relint_setup                    2  9.0    0.000    0.016    0.000    0.016
 external_c_potential                22  5.9    0.001    0.016    0.001    0.016
 pw_grid_distribute                   4  8.0    0.002    0.005    0.015    0.016
 create_grid_atom                     2  9.0    0.001    0.016    0.001    0.016
 topology_generate_molecule_PAR       1  5.0    0.000    0.015    0.000    0.015
 topology_connectivity_pack_6         1  4.0    0.001    0.015    0.001    0.015
 topology_generate_bond_6             1  5.0    0.001    0.015    0.001    0.015
 connectivity_control_check_ele       1  4.0    0.001    0.015    0.001    0.015
 scf_c_read_parameters                1  3.0    0.000    0.015    0.000    0.015
 write_particle_coordinates          11  5.9    0.000    0.015    0.000    0.015
 dbcsr_copy_into_existing            22  7.9    0.003    0.014    0.003    0.014
 topology_connectivity_pack_5         1  4.0    0.000    0.014    0.000    0.014
 distribute_molecules_2d              1  4.0    0.002    0.014    0.002    0.014
 sg_erf                               5 10.0    0.000    0.014    0.000    0.014
 dbcsr_mm_multrec_finalize         2286 15.5    0.006    0.007    0.009    0.014
 contract2                           15 10.0    0.000    0.014    0.000    0.014
 create_fast_row_vec_access        1669 15.0    0.002    0.007    0.008    0.014
 dbcsr_work_destroy_all           10112 15.6    0.010    0.011    0.013    0.014
 write_mo_free_results               11  7.9    0.004    0.013    0.006    0.014
 topology_coordinate_pack_5           1  4.0    0.000    0.013    0.000    0.013
 load_balance_replicated             11 10.9    0.001    0.001    0.013    0.013
 mp_deallocate_d                  26468 16.7    0.011    0.013    0.011    0.013
 topology_coordinate_pack_1           1  4.0    0.001    0.013    0.001    0.013
 balance_global_list                 22 12.9    0.000    0.012    0.000    0.012
 rs_grid_create_descriptor            4  6.0    0.001    0.003    0.009    0.012
 dbcsr_set                         4172 14.9    0.003    0.008    0.007    0.012
 mp_max_l                            22  2.0    0.010    0.012    0.010    0.012
 calculate_atom_vxc_lda              12 11.0    0.001    0.011    0.001    0.011
 topology_generate_bend               1  4.0    0.000    0.011    0.000    0.011
 qs_scf_post_ps_implicit             11  8.9    0.001    0.011    0.001    0.011
 create_fast_col_vec_access        1669 15.0    0.001    0.006    0.007    0.011
 topology_constraint_pack             1  3.0    0.000    0.000    0.000    0.011
 topology_constraint_pack_3           1  4.0    0.000    0.011    0.000    0.011
 copy_fm_to_dbcsr_bc                176 12.2    0.003    0.007    0.007    0.011
 write_restart                       10  4.0    0.000    0.007    0.007    0.011
 dbcsr_get_global_row_map          2286 13.5    0.002    0.011    0.002    0.011
 create_col_vec_from_matrix         238 13.4    0.001    0.008    0.003    0.010
 mp_sum_root_iv                      22 12.9    0.008    0.010    0.008    0.010
 dbcsr_get_local_rows              4145 14.1    0.009    0.010    0.009    0.010
 topology_connectivity_pack_13        1  4.0    0.000    0.010    0.000    0.010
 restraint_control                   11  3.9    0.001    0.007    0.004    0.010
 dbcsr_iterator_seek              32540 16.7    0.007    0.010    0.007    0.010
 read_qs_section                      1  3.0    0.001    0.010    0.001    0.010
 sort_neighbor_lists                  1  7.0    0.001    0.010    0.001    0.010
 dbcsr_add_wm_from_matrix           443 12.9    0.001    0.002    0.008    0.010
 kpoint_initialize                    1  2.0    0.001    0.010    0.001    0.010
 mp_irecv_zv                      20706 17.0    0.003    0.010    0.003    0.010
 update_input                         1  5.0    0.003    0.008    0.007    0.010
 check_generate_mol                   1  6.0    0.000    0.009    0.000    0.009
 mp_bcast_iv                         23  4.6    0.006    0.009    0.006    0.009
 write_ks_matrix_csr                 11  8.9    0.000    0.009    0.000    0.009
 cp_fm_create                       325 11.8    0.002    0.009    0.002    0.009
 build_neighbor_lists_sab_orb        11  7.9    0.002    0.009    0.002    0.009
 write_mos_molden                    11  8.9    0.000    0.009    0.000    0.009
 update_motion                        1  6.0    0.000    0.008    0.002    0.009
 update_motion_AVERAGES               1  7.0    0.001    0.009    0.001    0.009
 scf_env_create                       1  5.0    0.000    0.009    0.000    0.009
 dbcsr_matrix_vector_mult_local    1669 15.0    0.003    0.005    0.006    0.008
 pw_grid_remap                        4  8.0    0.000    0.001    0.007    0.008
 contract2add                        10 10.0    0.000    0.008    0.000    0.008
 read_binary_coordinates              1  3.0    0.000    0.008    0.000    0.008
 pw_axpy                            595 10.6    0.005    0.008    0.005    0.008
 topology_molecules_check             1  4.0    0.000    0.008    0.000    0.008
 mp_sum_im3                           4  9.0    0.007    0.008    0.007    0.008
 create_fast_row_vec_access_d      1669 16.0    0.003    0.004    0.007    0.008
 build_neighbor_lists_sac_ppl        11  7.9    0.008    0.008    0.008    0.008
 qs_scf_ensure_mos                   11  5.9    0.003    0.008    0.003    0.008
 make_basic_distribution              1  5.0    0.000    0.008    0.000    0.008
 write_dft_control                    1  3.0    0.000    0.008    0.000    0.008
 qs_env_rebuild_rho                  11  7.9    0.000    0.003    0.002    0.008
 mp_sum_lv                           20  4.0    0.005    0.008    0.005    0.008
 mp_allocate_i                    19508 16.9    0.007    0.008    0.007    0.008
 qs_rho_rebuild                      11  8.9    0.001    0.007    0.002    0.008
 scf_env_release                      3  4.0    0.001    0.008    0.001    0.008
 dbcsr_mm_sched_finalize           2286 16.5    0.002    0.007    0.002    0.007
 dbcsr_fill_wm_from_matrix          443 13.9    0.003    0.003    0.006    0.007
 write_s_matrix_csr                  11  8.9    0.001    0.007    0.001    0.007
 update_motion_NPT                    1  7.0    0.001    0.007    0.001    0.007
 mp_deallocate_i                  19508 16.6    0.006    0.007    0.006    0.007
 atom2d_build                        11  7.9    0.000    0.007    0.000    0.007
 mpools_rebuild_fm_pools              1  4.0    0.001    0.005    0.006    0.007
 update_subsys                        1  6.0    0.000    0.006    0.002    0.007
 write_structure_data                12  4.8    0.000    0.007    0.000    0.007
 dbcsr_make_index_list             4572 14.5    0.005    0.007    0.005    0.007
 qs_scf_loop_print                  108  7.5    0.002    0.007    0.002    0.007
 qs_scf_post_charges                 11  6.9    0.000    0.006    0.000    0.007
 create_fast_col_vec_access_d      1669 16.0    0.003    0.003    0.006    0.006
 dbcsr_index_prune_deleted         3978 15.8    0.005    0.006    0.005    0.006
 mp_comm_free                       529 12.9    0.003    0.006    0.003    0.006
 topology_generate_bond_1             1  5.0    0.000    0.006    0.000    0.006
 section_coord_val_set                1  7.0    0.001    0.006    0.001    0.006
 qs_scf_post_moments                 11  6.9    0.000    0.006    0.000    0.006
 dbcsr_make_index_local_row        4572 14.5    0.003    0.006    0.003    0.006
 cp_fm_init_random                    1  8.0    0.002    0.004    0.004    0.006
 pw_env_create                        1  5.0    0.000    0.006    0.000    0.006
 dbcsr_scale_anytype               2109 14.8    0.002    0.005    0.002    0.006
 write_qs_control                     1  3.0    0.001    0.006    0.001    0.006
 transpose_index_local              954 14.3    0.002    0.004    0.003    0.005
 dbcsr_scale_d                      228 13.5    0.001    0.003    0.002    0.005
 dbcsr_make_dbcsr_index           12066 16.3    0.005    0.005    0.005    0.005
 mp_comm_compare                    717 15.9    0.003    0.005    0.003    0.005
 scf_c_write_parameters               1  3.0    0.000    0.005    0.000    0.005
 pw_grid_sort                         4  8.0    0.001    0.003    0.002    0.005
 dbcsr_zero                        4270 15.8    0.004    0.005    0.004    0.005
 dbcsr_reserve_all_blocks           652 14.1    0.001    0.001    0.004    0.005
 write_symmetry                       1  3.0    0.000    0.005    0.000    0.005
 mp_sum_i                            15  6.7    0.003    0.005    0.003    0.005
 dbcsr_scale_by_vector_anytype      208 11.2    0.001    0.004    0.002    0.005
 pw_zero                            119 10.7    0.004    0.005    0.004    0.005
 mp_sum_im                           55  8.5    0.004    0.005    0.004    0.005
 qs_scf_post_elf                     11  6.9    0.000    0.005    0.000    0.005
 mp_environ_c                      1205 15.6    0.002    0.005    0.002    0.005
 build_neighbor_lists_sap_ppnl       11  7.9    0.004    0.005    0.004    0.005
 qs_scf_post_transport               11  8.9    0.000    0.004    0.000    0.004
 add_external_potential              11  3.9    0.001    0.004    0.001    0.004
 scf_c_create                         1  3.0    0.000    0.004    0.000    0.004
 dbcsr_get_data_size_used          5540 14.8    0.004    0.004    0.004    0.004
 sort_shells                          4  9.0    0.002    0.004    0.002    0.004
 section_velocity_val_set             1  7.0    0.000    0.004    0.000    0.004
 temperature_control                 10  3.0    0.000    0.004    0.000    0.004
 ot_scf_read_input                   11  7.9    0.000    0.004    0.001    0.004
 mp_alltoall_i                        3 15.0    0.002    0.004    0.002    0.004
 fix_atom_control                    11  3.9    0.001    0.004    0.001    0.004
 release_fast_vec_access           3338 15.0    0.001    0.004    0.001    0.004
 comvel_control                      10  3.0    0.000    0.004    0.000    0.004
 mp_rank_compare                    714 16.0    0.002    0.004    0.002    0.004
 mp_cart_rank                      1343 15.0    0.001    0.003    0.001    0.003
 compute_averages                    10  5.0    0.001    0.003    0.001    0.003
 create_destination_list             22 11.9    0.003    0.003    0.003    0.003
 ot_readwrite_input                  11  8.9    0.001    0.003    0.001    0.003
 fill_hash_tables                  2286 16.5    0.003    0.003    0.003    0.003
 pw_poisson_set                       1  6.0    0.000    0.003    0.000    0.003
 remove_restart_info                  1  2.0    0.000    0.003    0.000    0.003
 mp_max_r                             1  3.0    0.003    0.003    0.003    0.003
 mp_min_lv                            4  8.0    0.003    0.003    0.003    0.003
 mp_dims_create                       4  9.0    0.000    0.003    0.000    0.003
 metadyn_read                         1  2.0    0.000    0.003    0.000    0.003
 calculate_ecore_efield              22  5.9    0.000    0.003    0.000    0.003
 dbcsr_mm_sched_init               2286 16.5    0.002    0.003    0.003    0.003
 pw_poisson_rebuild                 119 11.3    0.001    0.003    0.001    0.003
 dbcsr_hadamard_product              98 13.0    0.001    0.002    0.002    0.003
 scf_env_cleanup                     11  5.9    0.000    0.003    0.000    0.003
 mp_cart_coords                    1792 11.6    0.001    0.003    0.001    0.003
 create_replicated_col_vec_from     119 13.4    0.000    0.001    0.001    0.003
 copy_dbcsr_to_fm_bc                153 12.3    0.002    0.002    0.002    0.003
 dbcsr_add_on_diag                  138 12.7    0.000    0.001    0.002    0.003
 create_local_fixd_list              11  4.9    0.001    0.002    0.001    0.002
 pw_pool_create_pw                 2416 11.8    0.002    0.002    0.002    0.002
 build_neighbor_lists_sab_all        11  7.9    0.002    0.002    0.002    0.002
 cleanup_scf_loop                    11  7.9    0.000    0.000    0.002    0.002
 make_full_kinetic                   11  9.9    0.000    0.001    0.002    0.002
 pw_pool_give_back_pw              2867 12.0    0.002    0.002    0.002    0.002
 dbcsr_mempool_clear                458 13.4    0.001    0.001    0.002    0.002
 cp_fm_scale_and_add                 24  9.0    0.000    0.002    0.000    0.002
 pw_scale                           119 10.3    0.001    0.002    0.001    0.002
 cp_fm_set_all                        1  8.0    0.000    0.002    0.000    0.002
 init_cube_info                       4  6.0    0.001    0.002    0.001    0.002
 write_mo_set_to_restart            108  7.5    0.001    0.002    0.001    0.002
 create_replicated_row_vec_from     119 13.4    0.000    0.000    0.001    0.002
 build_neighbor_lists_sab_core       11  7.9    0.002    0.002    0.002    0.002
 mp_environ_l                      1959 15.1    0.001    0.002    0.001    0.002
 pw_grid_assign                       4  8.0    0.000    0.001    0.001    0.002
 mp_min_rv                            1  3.0    0.001    0.001    0.001    0.001
 dbcsr_get_global_col_map          2286 13.5    0.001    0.001    0.001    0.001
 mp_max_lv                            4  8.0    0.001    0.001    0.001    0.001
 qs_efield_local_operator           119 10.3    0.001    0.001    0.001    0.001
 qs_scf_print_scf_summary            11  7.9    0.000    0.001    0.000    0.001
 mp_sum_r                             1  3.0    0.001    0.001    0.001    0.001
 mp_sum_lm3                           1  3.0    0.001    0.001    0.001    0.001
 dbcsr_mm_hostdrv_init             2286 17.5    0.001    0.001    0.001    0.001
 qs_efield_berry_phase              119 10.3    0.000    0.001    0.000    0.001
 setup_velocities                     1  3.0    0.000    0.000    0.000    0.001
 initialize_velocities                1  4.0    0.000    0.001    0.000    0.001
 dump_info_core_hamiltonian          22  6.9    0.000    0.000    0.000    0.000
 cp_fm_release                      330 11.4    0.000    0.000    0.000    0.000
 pw_create                          382 12.9    0.000    0.000    0.000    0.000
 mp_sum_rv                            1  3.0    0.000    0.000    0.000    0.000
 mp_max_d                             1  1.0    0.000    0.000    0.000    0.000
 distribute_molecules_1d              1  3.0    0.000    0.000    0.000    0.000
 qs_ks_did_change                   130  7.7    0.000    0.000    0.000    0.000
 init_interaction_radii               1  3.0    0.000    0.000    0.000    0.000
 set_mo_occupation_1                120  9.4    0.000    0.000    0.000    0.000
 dbcsr_verify_matrix                 22  9.9    0.000    0.000    0.000    0.000
 qs_energies_properties              11  5.9    0.000    0.000    0.000    0.000
 dbcsr_filter_anytype               163  9.7    0.000    0.000    0.000    0.000
 read_tddfpt2_control                 1  3.0    0.000    0.000    0.000    0.000
 mp_max_rv                            1  3.0    0.000    0.000    0.000    0.000
 transport_current                   11  9.9    0.000    0.000    0.000    0.000
 calculate_ecore_self                22  5.9    0.000    0.000    0.000    0.000
 resp_fit                            11  7.9    0.000    0.000    0.000    0.000
 rs_grid_create                      26  9.3    0.000    0.000    0.000    0.000
 qs_scf_post_epr                     11  6.9    0.000    0.000    0.000    0.000
 qs_scf_post_efg                     11  6.9    0.000    0.000    0.000    0.000
 linres_calculation_low              11  6.9    0.000    0.000    0.000    0.000
 qs_scf_post_xray                    11  6.9    0.000    0.000    0.000    0.000
 qs_scf_post_molopt                  11  6.9    0.000    0.000    0.000    0.000
 cp_ddapc_init                       11  7.9    0.000    0.000    0.000    0.000
 write_dm_binary_restart             11  8.9    0.000    0.000    0.000    0.000
 cp_fm_scale                         10  9.0    0.000    0.000    0.000    0.000
 destroy_preconditioner               1  3.0    0.000    0.000    0.000    0.000
 topology_coordinate_pack_11          1  4.0    0.000    0.000    0.000    0.000
 external_e_potential                22  5.9    0.000    0.000    0.000    0.000
 pw_grid_allocate                     4  8.0    0.000    0.000    0.000    0.000
 rs_grid_reorder_ranks               11 10.9    0.000    0.000    0.000    0.000
 -------------------------------------------------------------------------------

 The number of warnings for this run is : 1
 
 -------------------------------------------------------------------------------
  **** **** ******  **  PROGRAM ENDED AT                 2020-08-07 15:53:30.799
 ***** ** ***  *** **   PROGRAM RAN ON                                      f350
 **    ****   ******    PROGRAM RAN BY                                    ongari
 ***** **    ** ** **   PROGRAM PROCESS ID                                  5574
  **** **  *******  **  PROGRAM STOPPED IN /scratch/ongari/lsmo_benchmark/cp2k/0
                                           7_fidis_cp2k-5.1_intel-mpi/ncores_256
