 DBCSR| Multiplication driver                                               BLAS
 DBCSR| Multrec recursion limit                                              512
 DBCSR| Multiplication stack size                                           1000
 DBCSR| Maximum elements for images                                    UNLIMITED
 DBCSR| Randmat seed                                                    12341313
 DBCSR| Multiplication size stacks                                             3
 DBCSR| Use MPI memory allocation                                              T
 DBCSR| Use RMA algorithm                                                      F
 DBCSR| Use Communication thread                                               T
 DBCSR| Communication thread load                                             87


  **** **** ******  **  PROGRAM STARTED AT               2017-10-20 13:16:20.624
 ***** ** ***  *** **   PROGRAM STARTED ON                                  b380
 **    ****   ******    PROGRAM STARTED BY                                ongari
 ***** **    ** ** **   PROGRAM PROCESS ID                                 22297
  **** **  *******  **  PROGRAM STARTED IN /scratch/ongari/1_benchmark_official/
                                           cp2k/02_bellatrix_cp2k-3.0_stable-gcc
                                           /ncores_032

 CP2K| version string:                                          CP2K version 3.0
 CP2K| source code revision number:                                    svn:16458
 CP2K| cp2kflags: libint fftw3 pexsi elpa3 parallel mpi2 scalapack              
 CP2K| is freely available from                            https://www.cp2k.org/
 CP2K| Program compiled at                         Wed Aug 24 15:52:15 CEST 2016
 CP2K| Program compiled on                                                  b406
 CP2K| Program compiled for                                 x86_E5v1_IntelIB-gcc
 CP2K| Data directory path    /dev/shm/scitasbuild/1101062/spack-stage/spack-sta
 CP2K| Input file name                                                H2O-64.inp

 GLOBAL| Force Environment number                                              1
 GLOBAL| Basis set file name                                           POTENTIAL
 GLOBAL| MM Potential file name                                     MM_POTENTIAL
 GLOBAL| Coordinate file name                                      __STD_INPUT__
 GLOBAL| Method name                                                        CP2K
 GLOBAL| Project name                                                     H2O-64
 GLOBAL| Preferred FFT library                                             FFTW3
 GLOBAL| Preferred diagonalization lib.                                       SL
 GLOBAL| Run type                                                             MD
 GLOBAL| All-to-all communication in single precision                          F
 GLOBAL| FFTs using library dependent lengths                                  F
 GLOBAL| Global print level                                                  LOW
 GLOBAL| Total number of message passing processes                            32
 GLOBAL| Number of threads for this process                                    1
 GLOBAL| This output is from process                                           0
 GLOBAL| CPU model name :  Intel(R) Xeon(R) CPU E5-2660 0 @ 2.20GHz

 MEMORY| system memory details [Kb]
 MEMORY|                        rank 0           min           max       average
 MEMORY| MemTotal             32783780      32783780      32783780      32783780
 MEMORY| MemFree              29901904      29901904      30071308      29986617
 MEMORY| Buffers                 27020         27020         32620         29820
 MEMORY| Cached                 393140        211532        393140        302336
 MEMORY| Slab                   113752        108572        113752        111162
 MEMORY| SReclaimable            31392         26300         31392         28846
 MEMORY| MemLikelyFree        30353456      30341760      30353828      30347619


 GENERATE|  Preliminary Number of Bonds generated:                             0
 GENERATE|  Achieved consistency in connectivity generation.

 *******************************************************************************
 *******************************************************************************
 **                                                                           **
 **     #####                         ##              ##                      **
 **    ##   ##            ##          ##              ##                      **
 **   ##     ##                       ##            ######                    **
 **   ##     ##  ##   ##  ##   #####  ##  ##   ####   ##    #####    #####    **
 **   ##     ##  ##   ##  ##  ##      ## ##   ##      ##   ##   ##  ##   ##   **
 **   ##  ## ##  ##   ##  ##  ##      ####     ###    ##   ######   ######    **
 **    ##  ###   ##   ##  ##  ##      ## ##      ##   ##   ##       ##        **
 **     #######   #####   ##   #####  ##  ##  ####    ##    #####   ##        **
 **           ##                                                    ##        **
 **                                                                           **
 **                                                ... make the atoms dance   **
 **                                                                           **
 **            Copyright (C) by CP2K Developers Group (2000 - 2015)           **
 **                                                                           **
 *******************************************************************************


 SCF PARAMETERS         Density guess:                                    ATOMIC
                        --------------------------------------------------------
                        max_scf:                                              50
                        max_scf_history:                                       0
                        max_diis:                                              4
                        --------------------------------------------------------
                        eps_scf:                                        1.00E-05
                        eps_scf_history:                                0.00E+00
                        eps_diis:                                       1.00E-01
                        eps_eigval:                                     1.00E-05
                        --------------------------------------------------------
                        level_shift [a.u.]:                                 0.00
                        --------------------------------------------------------
                        No outer SCF

 MD| Molecular Dynamics Protocol 
 MD| Ensemble Type                                                           NVE
 MD| Number of Time Steps                                                     10
 MD| Time Step [fs]                                                         0.50
 MD| Temperature [K]                                                      300.00
 MD| Temperature tolerance [K]                                              0.00
 MD| Print MD information every                                        1 step(s)
 MD| File type     Print frequency[steps]                             File names
 MD| Coordinates            1                                   H2O-64-pos-1.xyz
 MD| Velocities             1                                   H2O-64-vel-1.xyz
 MD| Energies               1                                      H2O-64-1.ener
 MD| Dump                  20                                   H2O-64-1.restart

 ROT| Rotational Analysis Info 
 ROT| Principal axes and moments of inertia in atomic units:
 ROT|                                1                 2                 3
 ROT| EIGENVALUES            0.174175353E+09   0.187507692E+09   0.199545123E+09
 ROT|      X                    -0.734964520       0.242599134       0.633224142
 ROT|      Y                    -0.044883650       0.914361712      -0.402402930
 ROT|      Z                    -0.676618513      -0.324173287      -0.661134682
 ROT| Numer of Rotovibrational vectors:     6

 Calculation of degrees of freedom
                                                      Number of atoms:       192
                                 Number of Intramolecular constraints:         0
                                 Number of Intermolecular constraints:         0
                                  Invariants(translation + rotations):         3
                                                   Degrees of freedom:       573


 Restraints Information
                                  Number of Intramolecular restraints:         0
                                  Number of Intermolecular restraints:         0
 ************************** Velocities initialization **************************
 Initial Temperature                                                    300.00 K
 COM velocity:           -0.000000000000     -0.000000000000     -0.000000000000
 *******************************************************************************


 Number of electrons:                                                        512
 Number of occupied orbitals:                                                256
 Number of molecular orbitals:                                               256

 Number of orbital functions:                                               2560
 Number of independent orbital functions:                                   2560

 Extrapolation method: initial_guess


 SCF WAVEFUNCTION OPTIMIZATION

  ----------------------------------- OT ---------------------------------------
  Minimizer      : DIIS                : direct inversion
                                         in the iterative subspace
                                         using   7 DIIS vectors
                                         safer DIIS on
  Preconditioner : FULL_KINETIC        : inversion of T + eS
  Precond_solver : DEFAULT
  stepsize       :    0.15000000                  energy_gap     :    0.20000000
  eps_taylor     :   0.10000E-15                  max_taylor     :             4
  ----------------------------------- OT ---------------------------------------

  Step     Update method      Time    Convergence         Total energy    Change
  ------------------------------------------------------------------------------
     1 OT DIIS     0.15E+00    1.3     0.01332027     -1059.3825079557 -1.06E+03
     2 OT DIIS     0.15E+00    1.1     0.00868183     -1073.0837973670 -1.37E+01
     3 OT DIIS     0.15E+00    1.1     0.00608177     -1082.3329449393 -9.25E+00
     4 OT DIIS     0.15E+00    1.1     0.00420419     -1088.9991944739 -6.67E+00
     5 OT DIIS     0.15E+00    1.1     0.00319228     -1092.5975694249 -3.60E+00
     6 OT DIIS     0.15E+00    1.1     0.00242089     -1095.2728736089 -2.68E+00
     7 OT DIIS     0.15E+00    1.1     0.00180823     -1097.1827110187 -1.91E+00
     8 OT DIIS     0.15E+00    1.1     0.00136563     -1098.4047633189 -1.22E+00
     9 OT DIIS     0.15E+00    1.0     0.00107154     -1099.0957253931 -6.91E-01
    10 OT DIIS     0.15E+00    1.0     0.00085958     -1099.5568478897 -4.61E-01
    11 OT DIIS     0.15E+00    1.1     0.00070902     -1099.8674344588 -3.11E-01
    12 OT DIIS     0.15E+00    1.0     0.00059349     -1100.0778291172 -2.10E-01
    13 OT DIIS     0.15E+00    1.1     0.00050949     -1100.2324062136 -1.55E-01
    14 OT DIIS     0.15E+00    1.1     0.00044833     -1100.3361495732 -1.04E-01
    15 OT DIIS     0.15E+00    1.1     0.00039690     -1100.4341573205 -9.80E-02
    16 OT DIIS     0.15E+00    1.2     0.00035862     -1100.5038829257 -6.97E-02
    17 OT DIIS     0.15E+00    1.1     0.00034534     -1100.5572959989 -5.34E-02
    18 OT DIIS     0.15E+00    1.1     0.00034139     -1100.5793052943 -2.20E-02
    19 OT DIIS     0.15E+00    1.1     0.00033463     -1100.5947747725 -1.55E-02
    20 OT SD       0.15E+00    1.1     0.00033658     -1100.6056260666 -1.09E-02
    21 OT DIIS     0.15E+00    1.1     0.00033500     -1100.6167319763 -1.11E-02
    22 OT DIIS     0.15E+00    1.1     0.00032752     -1100.6181772877 -1.45E-03
    23 OT DIIS     0.15E+00    1.0     0.00032184     -1100.6243788064 -6.20E-03
    24 OT DIIS     0.15E+00    1.1     0.00030944     -1100.6371111614 -1.27E-02
    25 OT SD       0.15E+00    1.1     0.00030022     -1100.6455945048 -8.48E-03
    26 OT DIIS     0.15E+00    1.1     0.00029911     -1100.6544335251 -8.84E-03
    27 OT DIIS     0.15E+00    1.1     0.00028894     -1100.6591662825 -4.73E-03
    28 OT SD       0.15E+00    1.1     0.00028473     -1100.6665469324 -7.38E-03
    29 OT SD       0.15E+00    1.1     0.00028442     -1100.6745080801 -7.96E-03
    30 OT SD       0.15E+00    1.1     0.00028480     -1100.6824637367 -7.96E-03
    31 OT SD       0.15E+00    1.1     0.00028544     -1100.6904451527 -7.98E-03
    32 OT DIIS     0.15E+00    1.1     0.00028617     -1100.6984643086 -8.02E-03
    33 OT SD       0.15E+00    1.0     0.00033212     -1100.7435639636 -4.51E-02
    34 OT SD       0.15E+00    1.1     0.00031463     -1100.7540641968 -1.05E-02
    35 OT SD       0.15E+00    1.0     0.00030588     -1100.7636402128 -9.58E-03
    36 OT SD       0.15E+00    1.0     0.00030057     -1100.7727489685 -9.11E-03
    37 OT SD       0.15E+00    1.1     0.00029679     -1100.7815697671 -8.82E-03
    38 OT SD       0.15E+00    1.0     0.00029367     -1100.7901809979 -8.61E-03
    39 OT DIIS     0.15E+00    1.2     0.00029082     -1100.7986166935 -8.44E-03
    40 OT SD       0.15E+00    1.1     0.00016832     -1100.9875398763 -1.89E-01
    41 OT DIIS     0.15E+00    1.2     0.00014749     -1100.9901042386 -2.56E-03
    42 OT DIIS     0.15E+00    1.0     0.00023359     -1100.9860270229  4.08E-03
    43 OT DIIS     0.15E+00    1.1     0.00017591     -1100.9988969365 -1.29E-02
    44 OT DIIS     0.15E+00    1.1     0.00022226     -1101.0010831347 -2.19E-03
    45 OT DIIS     0.15E+00    1.1     0.00015342     -1101.0160500108 -1.50E-02
    46 OT DIIS     0.15E+00    1.1     0.00005874     -1101.0255699554 -9.52E-03
    47 OT DIIS     0.15E+00    1.0     0.00007360     -1101.0255460654  2.39E-05
    48 OT DIIS     0.15E+00    1.1     0.00005773     -1101.0267774769 -1.23E-03
    49 OT DIIS     0.15E+00    1.0     0.00005383     -1101.0275719805 -7.95E-04
    50 OT DIIS     0.15E+00    1.1     0.00004287     -1101.0287889096 -1.22E-03

  Leaving inner SCF loop after reaching    50 steps.


  Electronic density on regular grids:       -512.0000015470       -0.0000015470
  Core density on regular grids:              512.0000000045        0.0000000045
  Total charge density on r-space grids:       -0.0000015425
  Total charge density g-space grids:          -0.0000015425

  Overlap energy of the core charge distribution:               0.00000562599749
  Self energy of the core charge distribution:              -2805.30499493854950
  Core Hamiltonian energy:                                    825.29378519458146
  Hartree energy:                                            1145.26167274429235
  Exchange-correlation energy:                               -266.27925753592012

  Total energy:                                             -1101.02878890959846

 *** WARNING in qs_scf.F:479 :: SCF run NOT converged ***


 ENERGY| Total FORCE_EVAL ( QS ) energy (a.u.):            -1101.031006970593353


 MD_ENERGIES| Initialization proceeding


 ******************************** GO CP2K GO! **********************************
 INITIAL POTENTIAL ENERGY[hartree]     =                     -0.110103100697E+04
 INITIAL KINETIC ENERGY[hartree]       =                      0.272187778755E+00
 INITIAL TEMPERATURE[K]                =                                 300.000
 INITIAL VOLUME[bohr^3]                =                      0.129095421321E+05
 INITIAL CELL LNTHS[bohr]   =      0.2345868E+02   0.2345868E+02   0.2345868E+02
 INITIAL CELL ANGLS[deg]    =      0.9000000E+02   0.9000000E+02   0.9000000E+02
 ******************************** GO CP2K GO! **********************************

 Number of electrons:                                                        512
 Number of occupied orbitals:                                                256
 Number of molecular orbitals:                                               256

 Number of orbital functions:                                               2560
 Number of independent orbital functions:                                   2560

 Extrapolation method: PS Nth order


 SCF WAVEFUNCTION OPTIMIZATION

  ----------------------------------- OT ---------------------------------------
  Minimizer      : DIIS                : direct inversion
                                         in the iterative subspace
                                         using   7 DIIS vectors
                                         safer DIIS on
  Preconditioner : FULL_KINETIC        : inversion of T + eS
  Precond_solver : DEFAULT
  stepsize       :    0.15000000                  energy_gap     :    0.20000000
  eps_taylor     :   0.10000E-15                  max_taylor     :             4
  ----------------------------------- OT ---------------------------------------

  Step     Update method      Time    Convergence         Total energy    Change
  ------------------------------------------------------------------------------
     1 OT DIIS     0.15E+00    1.1     0.00024949     -1101.0278031975 -1.10E+03
     2 OT DIIS     0.15E+00    1.1     0.00016075     -1101.0327091508 -4.91E-03
     3 OT DIIS     0.15E+00    1.1     0.00009050     -1101.0362863174 -3.58E-03
     4 OT DIIS     0.15E+00    1.1     0.00006199     -1101.0377277257 -1.44E-03
     5 OT DIIS     0.15E+00    1.1     0.00003797     -1101.0386877894 -9.60E-04
     6 OT DIIS     0.15E+00    1.1     0.00002205     -1101.0391017619 -4.14E-04
     7 OT DIIS     0.15E+00    1.0     0.00001260     -1101.0392355450 -1.34E-04
     8 OT DIIS     0.15E+00    1.1     0.00000723     -1101.0392767826 -4.12E-05

  *** SCF run converged in     8 steps ***


  Electronic density on regular grids:       -512.0000014905       -0.0000014905
  Core density on regular grids:              511.9999999975       -0.0000000025
  Total charge density on r-space grids:       -0.0000014931
  Total charge density g-space grids:          -0.0000014931

  Overlap energy of the core charge distribution:               0.00000554074590
  Self energy of the core charge distribution:              -2805.30499493854950
  Core Hamiltonian energy:                                    824.99709670365758
  Hartree energy:                                            1145.47089243721757
  Exchange-correlation energy:                               -266.20227652568587

  Total energy:                                             -1101.03927678261425

 ENERGY| Total FORCE_EVAL ( QS ) energy (a.u.):            -1101.039289563987040


 *******************************************************************************
 ENSEMBLE TYPE                =                                              NVE
 STEP NUMBER                  =                                                1
 TIME [fs]                    =                                         0.500000
 CONSERVED QUANTITY [hartree] =                              -0.110076554067E+04

                                              INSTANTANEOUS             AVERAGES
 CPU TIME [s]                 =                       66.82                66.82
 ENERGY DRIFT PER ATOM [K]    =         -0.110545478190E+02   0.000000000000E+00
 POTENTIAL ENERGY[hartree]    =         -0.110103928956E+04  -0.110103928956E+04
 KINETIC ENERGY [hartree]     =          0.273748891513E+00   0.273748891513E+00
 TEMPERATURE [K]              =                     301.721              301.721
 *******************************************************************************


 Number of electrons:                                                        512
 Number of occupied orbitals:                                                256
 Number of molecular orbitals:                                               256

 Number of orbital functions:                                               2560
 Number of independent orbital functions:                                   2560

 Extrapolation method: PS Nth order


 SCF WAVEFUNCTION OPTIMIZATION

  ----------------------------------- OT ---------------------------------------
  Minimizer      : DIIS                : direct inversion
                                         in the iterative subspace
                                         using   7 DIIS vectors
                                         safer DIIS on
  Preconditioner : FULL_KINETIC        : inversion of T + eS
  Precond_solver : DEFAULT
  stepsize       :    0.15000000                  energy_gap     :    0.20000000
  eps_taylor     :   0.10000E-15                  max_taylor     :             4
  ----------------------------------- OT ---------------------------------------

  Step     Update method      Time    Convergence         Total energy    Change
  ------------------------------------------------------------------------------
     1 OT DIIS     0.15E+00    1.2     0.00018187     -1101.0453213821 -1.10E+03
     2 OT DIIS     0.15E+00    1.0     0.00012503     -1101.0480054191 -2.68E-03
     3 OT DIIS     0.15E+00    1.0     0.00007517     -1101.0503828145 -2.38E-03
     4 OT DIIS     0.15E+00    1.0     0.00005150     -1101.0514777106 -1.09E-03
     5 OT DIIS     0.15E+00    1.0     0.00002882     -1101.0522243706 -7.47E-04
     6 OT DIIS     0.15E+00    1.0     0.00001712     -1101.0524515284 -2.27E-04
     7 OT DIIS     0.15E+00    1.0     0.00000972     -1101.0525297372 -7.82E-05

  *** SCF run converged in     7 steps ***


  Electronic density on regular grids:       -512.0000014194       -0.0000014194
  Core density on regular grids:              511.9999999954       -0.0000000046
  Total charge density on r-space grids:       -0.0000014240
  Total charge density g-space grids:          -0.0000014240

  Overlap energy of the core charge distribution:               0.00000508717620
  Self energy of the core charge distribution:              -2805.30499493854950
  Core Hamiltonian energy:                                    823.99099498802548
  Hartree energy:                                            1146.19319011612743
  Exchange-correlation energy:                               -265.93172499001872

  Total energy:                                             -1101.05252973723896

 ENERGY| Total FORCE_EVAL ( QS ) energy (a.u.):            -1101.052553905902414


 *******************************************************************************
 ENSEMBLE TYPE                =                                              NVE
 STEP NUMBER                  =                                                2
 TIME [fs]                    =                                         1.000000
 CONSERVED QUANTITY [hartree] =                              -0.110076574941E+04

                                              INSTANTANEOUS             AVERAGES
 CPU TIME [s]                 =                        9.10                37.96
 ENERGY DRIFT PER ATOM [K]    =         -0.113978550593E+02  -0.569892752967E+01
 POTENTIAL ENERGY[hartree]    =         -0.110105255391E+04  -0.110104592173E+04
 KINETIC ENERGY [hartree]     =          0.286804492826E+00   0.280276692170E+00
 TEMPERATURE [K]              =                     316.110              308.915
 *******************************************************************************


 Number of electrons:                                                        512
 Number of occupied orbitals:                                                256
 Number of molecular orbitals:                                               256

 Number of orbital functions:                                               2560
 Number of independent orbital functions:                                   2560

 Extrapolation method: PS Nth order


 SCF WAVEFUNCTION OPTIMIZATION

  ----------------------------------- OT ---------------------------------------
  Minimizer      : DIIS                : direct inversion
                                         in the iterative subspace
                                         using   7 DIIS vectors
                                         safer DIIS on
  Preconditioner : FULL_KINETIC        : inversion of T + eS
  Precond_solver : DEFAULT
  stepsize       :    0.15000000                  energy_gap     :    0.20000000
  eps_taylor     :   0.10000E-15                  max_taylor     :             4
  ----------------------------------- OT ---------------------------------------

  Step     Update method      Time    Convergence         Total energy    Change
  ------------------------------------------------------------------------------
     1 OT DIIS     0.15E+00    1.2     0.00016599     -1101.0673401808 -1.10E+03
     2 OT DIIS     0.15E+00    1.1     0.00011755     -1101.0696106474 -2.27E-03
     3 OT DIIS     0.15E+00    1.1     0.00007010     -1101.0718403937 -2.23E-03
     4 OT DIIS     0.15E+00    1.0     0.00004686     -1101.0728159792 -9.76E-04
     5 OT DIIS     0.15E+00    1.0     0.00002506     -1101.0734352745 -6.19E-04
     6 OT DIIS     0.15E+00    1.1     0.00001526     -1101.0735929641 -1.58E-04
     7 OT DIIS     0.15E+00    1.2     0.00000857     -1101.0736544803 -6.15E-05

  *** SCF run converged in     7 steps ***


  Electronic density on regular grids:       -512.0000013333       -0.0000013333
  Core density on regular grids:              511.9999999979       -0.0000000021
  Total charge density on r-space grids:       -0.0000013354
  Total charge density g-space grids:          -0.0000013354

  Overlap energy of the core charge distribution:               0.00000421676059
  Self energy of the core charge distribution:              -2805.30499493854950
  Core Hamiltonian energy:                                    822.43891721577506
  Hartree energy:                                            1147.30180931055929
  Exchange-correlation energy:                               -265.50939028486442

  Total energy:                                             -1101.07365448031874

 ENERGY| Total FORCE_EVAL ( QS ) energy (a.u.):            -1101.073673404310739


 *******************************************************************************
 ENSEMBLE TYPE                =                                              NVE
 STEP NUMBER                  =                                                3
 TIME [fs]                    =                                         1.500000
 CONSERVED QUANTITY [hartree] =                              -0.110076623801E+04

                                              INSTANTANEOUS             AVERAGES
 CPU TIME [s]                 =                        9.54                28.49
 ENERGY DRIFT PER ATOM [K]    =         -0.122014236634E+02  -0.786642624090E+01
 POTENTIAL ENERGY[hartree]    =         -0.110107367340E+04  -0.110105517229E+04
 KINETIC ENERGY [hartree]     =          0.307435398585E+00   0.289329594308E+00
 TEMPERATURE [K]              =                     338.849              318.893
 *******************************************************************************


 Number of electrons:                                                        512
 Number of occupied orbitals:                                                256
 Number of molecular orbitals:                                               256

 Number of orbital functions:                                               2560
 Number of independent orbital functions:                                   2560

 Extrapolation method: PS Nth order


 SCF WAVEFUNCTION OPTIMIZATION

  ----------------------------------- OT ---------------------------------------
  Minimizer      : DIIS                : direct inversion
                                         in the iterative subspace
                                         using   7 DIIS vectors
                                         safer DIIS on
  Preconditioner : FULL_KINETIC        : inversion of T + eS
  Precond_solver : DEFAULT
  stepsize       :    0.15000000                  energy_gap     :    0.20000000
  eps_taylor     :   0.10000E-15                  max_taylor     :             4
  ----------------------------------- OT ---------------------------------------

  Step     Update method      Time    Convergence         Total energy    Change
  ------------------------------------------------------------------------------
     1 OT DIIS     0.15E+00    1.2     0.00016900     -1101.0882815791 -1.10E+03
     2 OT DIIS     0.15E+00    1.0     0.00012004     -1101.0906392119 -2.36E-03
     3 OT DIIS     0.15E+00    1.0     0.00006991     -1101.0929761671 -2.34E-03
     4 OT DIIS     0.15E+00    1.1     0.00004370     -1101.0939498196 -9.74E-04
     5 OT DIIS     0.15E+00    1.1     0.00002172     -1101.0944515377 -5.02E-04
     6 OT DIIS     0.15E+00    1.1     0.00001364     -1101.0945537971 -1.02E-04
     7 OT DIIS     0.15E+00    1.2     0.00000750     -1101.0946004838 -4.67E-05

  *** SCF run converged in     7 steps ***


  Electronic density on regular grids:       -512.0000012177       -0.0000012177
  Core density on regular grids:              512.0000000002        0.0000000002
  Total charge density on r-space grids:       -0.0000012176
  Total charge density g-space grids:          -0.0000012176

  Overlap energy of the core charge distribution:               0.00000308048338
  Self energy of the core charge distribution:              -2805.30499493854950
  Core Hamiltonian energy:                                    820.48664268915172
  Hartree energy:                                            1148.70443612235613
  Exchange-correlation energy:                               -264.98068743720376

  Total energy:                                             -1101.09460048376195

 ENERGY| Total FORCE_EVAL ( QS ) energy (a.u.):            -1101.094614859847752


 *******************************************************************************
 ENSEMBLE TYPE                =                                              NVE
 STEP NUMBER                  =                                                4
 TIME [fs]                    =                                         2.000000
 CONSERVED QUANTITY [hartree] =                              -0.110076681835E+04

                                              INSTANTANEOUS             AVERAGES
 CPU TIME [s]                 =                        9.52                23.74
 ENERGY DRIFT PER ATOM [K]    =         -0.131558943668E+02  -0.918879327238E+01
 POTENTIAL ENERGY[hartree]    =         -0.110109461486E+04  -0.110106503293E+04
 KINETIC ENERGY [hartree]     =          0.327796508688E+00   0.298946322903E+00
 TEMPERATURE [K]              =                     361.291              329.493
 *******************************************************************************


 Number of electrons:                                                        512
 Number of occupied orbitals:                                                256
 Number of molecular orbitals:                                               256

 Number of orbital functions:                                               2560
 Number of independent orbital functions:                                   2560

 Extrapolation method: PS Nth order


 SCF WAVEFUNCTION OPTIMIZATION

  ----------------------------------- OT ---------------------------------------
  Minimizer      : DIIS                : direct inversion
                                         in the iterative subspace
                                         using   7 DIIS vectors
                                         safer DIIS on
  Preconditioner : FULL_KINETIC        : inversion of T + eS
  Precond_solver : DEFAULT
  stepsize       :    0.15000000                  energy_gap     :    0.20000000
  eps_taylor     :   0.10000E-15                  max_taylor     :             4
  ----------------------------------- OT ---------------------------------------

  Step     Update method      Time    Convergence         Total energy    Change
  ------------------------------------------------------------------------------
     1 OT DIIS     0.15E+00    1.1     0.00006426     -1101.1044110237 -1.10E+03
     2 OT DIIS     0.15E+00    1.0     0.00005315     -1101.1047787984 -3.68E-04
     3 OT DIIS     0.15E+00    1.1     0.00003232     -1101.1054483798 -6.70E-04
     4 OT DIIS     0.15E+00    1.1     0.00002194     -1101.1057147872 -2.66E-04
     5 OT DIIS     0.15E+00    1.1     0.00001212     -1101.1058730945 -1.58E-04
     6 OT DIIS     0.15E+00    1.1     0.00000783     -1101.1059135973 -4.05E-05

  *** SCF run converged in     6 steps ***


  Electronic density on regular grids:       -512.0000010688       -0.0000010688
  Core density on regular grids:              511.9999999989       -0.0000000011
  Total charge density on r-space grids:       -0.0000010699
  Total charge density g-space grids:          -0.0000010699

  Overlap energy of the core charge distribution:               0.00000200945111
  Self energy of the core charge distribution:              -2805.30499493854950
  Core Hamiltonian energy:                                    818.39013739171241
  Hartree energy:                                            1150.21806252093211
  Exchange-correlation energy:                               -264.40912058081051

  Total energy:                                             -1101.10591359726413

 ENERGY| Total FORCE_EVAL ( QS ) energy (a.u.):            -1101.105932128856921


 *******************************************************************************
 ENSEMBLE TYPE                =                                              NVE
 STEP NUMBER                  =                                                5
 TIME [fs]                    =                                         2.500000
 CONSERVED QUANTITY [hartree] =                              -0.110076715532E+04

                                              INSTANTANEOUS             AVERAGES
 CPU TIME [s]                 =                        8.52                20.70
 ENERGY DRIFT PER ATOM [K]    =         -0.137100852897E+02  -0.100930516758E+02
 POTENTIAL ENERGY[hartree]    =         -0.110110593213E+04  -0.110107321277E+04
 KINETIC ENERGY [hartree]     =          0.338776813796E+00   0.306912421082E+00
 TEMPERATURE [K]              =                     373.393              338.273
 *******************************************************************************


 Number of electrons:                                                        512
 Number of occupied orbitals:                                                256
 Number of molecular orbitals:                                               256

 Number of orbital functions:                                               2560
 Number of independent orbital functions:                                   2560

 Extrapolation method: PS Nth order


 SCF WAVEFUNCTION OPTIMIZATION

  ----------------------------------- OT ---------------------------------------
  Minimizer      : DIIS                : direct inversion
                                         in the iterative subspace
                                         using   7 DIIS vectors
                                         safer DIIS on
  Preconditioner : FULL_KINETIC        : inversion of T + eS
  Precond_solver : DEFAULT
  stepsize       :    0.15000000                  energy_gap     :    0.20000000
  eps_taylor     :   0.10000E-15                  max_taylor     :             4
  ----------------------------------- OT ---------------------------------------

  Step     Update method      Time    Convergence         Total energy    Change
  ------------------------------------------------------------------------------
     1 OT DIIS     0.15E+00    1.2     0.00004706     -1101.1011339815 -1.10E+03
     2 OT DIIS     0.15E+00    1.1     0.00003814     -1101.1013293809 -1.95E-04
     3 OT DIIS     0.15E+00    1.2     0.00002079     -1101.1016568934 -3.28E-04
     4 OT DIIS     0.15E+00    1.1     0.00001223     -1101.1017643462 -1.07E-04
     5 OT DIIS     0.15E+00    1.1     0.00000730     -1101.1018023382 -3.80E-05

  *** SCF run converged in     5 steps ***


  Electronic density on regular grids:       -512.0000009008       -0.0000009008
  Core density on regular grids:              511.9999999941       -0.0000000059
  Total charge density on r-space grids:       -0.0000009067
  Total charge density g-space grids:          -0.0000009067

  Overlap energy of the core charge distribution:               0.00000123724779
  Self energy of the core charge distribution:              -2805.30499493854950
  Core Hamiltonian energy:                                    816.35636953443520
  Hartree energy:                                            1151.70037309180134
  Exchange-correlation energy:                               -263.85355126310321

  Total energy:                                             -1101.10180233816845

 ENERGY| Total FORCE_EVAL ( QS ) energy (a.u.):            -1101.101815178021525


 *******************************************************************************
 ENSEMBLE TYPE                =                                              NVE
 STEP NUMBER                  =                                                6
 TIME [fs]                    =                                         3.000000
 CONSERVED QUANTITY [hartree] =                              -0.110076702437E+04

                                              INSTANTANEOUS             AVERAGES
 CPU TIME [s]                 =                        7.69                18.53
 ENERGY DRIFT PER ATOM [K]    =         -0.134947244584E+02  -0.106599971396E+02
 POTENTIAL ENERGY[hartree]    =         -0.110110181518E+04  -0.110107797984E+04
 KINETIC ENERGY [hartree]     =          0.334790808494E+00   0.311558818984E+00
 TEMPERATURE [K]              =                     369.000              343.394
 *******************************************************************************


 Number of electrons:                                                        512
 Number of occupied orbitals:                                                256
 Number of molecular orbitals:                                               256

 Number of orbital functions:                                               2560
 Number of independent orbital functions:                                   2560

 Extrapolation method: PS Nth order


 SCF WAVEFUNCTION OPTIMIZATION

  ----------------------------------- OT ---------------------------------------
  Minimizer      : DIIS                : direct inversion
                                         in the iterative subspace
                                         using   7 DIIS vectors
                                         safer DIIS on
  Preconditioner : FULL_KINETIC        : inversion of T + eS
  Precond_solver : DEFAULT
  stepsize       :    0.15000000                  energy_gap     :    0.20000000
  eps_taylor     :   0.10000E-15                  max_taylor     :             4
  ----------------------------------- OT ---------------------------------------

  Step     Update method      Time    Convergence         Total energy    Change
  ------------------------------------------------------------------------------
     1 OT DIIS     0.15E+00    1.1     0.00004011     -1101.0829342809 -1.10E+03
     2 OT DIIS     0.15E+00    1.1     0.00003295     -1101.0830775657 -1.43E-04
     3 OT DIIS     0.15E+00    1.1     0.00001490     -1101.0833518754 -2.74E-04
     4 OT DIIS     0.15E+00    1.1     0.00000897     -1101.0834071080 -5.52E-05

  *** SCF run converged in     4 steps ***


  Electronic density on regular grids:       -512.0000007415       -0.0000007415
  Core density on regular grids:              511.9999999906       -0.0000000094
  Total charge density on r-space grids:       -0.0000007508
  Total charge density g-space grids:          -0.0000007508

  Overlap energy of the core charge distribution:               0.00000077877949
  Self energy of the core charge distribution:              -2805.30499493854950
  Core Hamiltonian energy:                                    814.58618751198685
  Hartree energy:                                            1153.00177219568877
  Exchange-correlation energy:                               -263.36637265588990

  Total energy:                                             -1101.08340710798439

 ENERGY| Total FORCE_EVAL ( QS ) energy (a.u.):            -1101.083423184810272


 *******************************************************************************
 ENSEMBLE TYPE                =                                              NVE
 STEP NUMBER                  =                                                7
 TIME [fs]                    =                                         3.500000
 CONSERVED QUANTITY [hartree] =                              -0.110076647588E+04

                                              INSTANTANEOUS             AVERAGES
 CPU TIME [s]                 =                        6.53                16.82
 ENERGY DRIFT PER ATOM [K]    =         -0.125926398252E+02  -0.109360889518E+02
 POTENTIAL ENERGY[hartree]    =         -0.110108342318E+04  -0.110107875746E+04
 KINETIC ENERGY [hartree]     =          0.316947308490E+00   0.312328603199E+00
 TEMPERATURE [K]              =                     349.333              344.242
 *******************************************************************************


 Number of electrons:                                                        512
 Number of occupied orbitals:                                                256
 Number of molecular orbitals:                                               256

 Number of orbital functions:                                               2560
 Number of independent orbital functions:                                   2560

 Extrapolation method: PS Nth order


 SCF WAVEFUNCTION OPTIMIZATION

  ----------------------------------- OT ---------------------------------------
  Minimizer      : DIIS                : direct inversion
                                         in the iterative subspace
                                         using   7 DIIS vectors
                                         safer DIIS on
  Preconditioner : FULL_KINETIC        : inversion of T + eS
  Precond_solver : DEFAULT
  stepsize       :    0.15000000                  energy_gap     :    0.20000000
  eps_taylor     :   0.10000E-15                  max_taylor     :             4
  ----------------------------------- OT ---------------------------------------

  Step     Update method      Time    Convergence         Total energy    Change
  ------------------------------------------------------------------------------
     1 OT DIIS     0.15E+00    1.2     0.00003934     -1101.0575993375 -1.10E+03
     2 OT DIIS     0.15E+00    1.1     0.00003220     -1101.0577372339 -1.38E-04
     3 OT DIIS     0.15E+00    1.1     0.00001302     -1101.0580145434 -2.77E-04
     4 OT DIIS     0.15E+00    1.1     0.00000937     -1101.0580508352 -3.63E-05

  *** SCF run converged in     4 steps ***


  Electronic density on regular grids:       -512.0000006088       -0.0000006088
  Core density on regular grids:              511.9999999927       -0.0000000073
  Total charge density on r-space grids:       -0.0000006162
  Total charge density g-space grids:          -0.0000006162

  Overlap energy of the core charge distribution:               0.00000054143077
  Self energy of the core charge distribution:              -2805.30499493854950
  Core Hamiltonian energy:                                    813.21035139300488
  Hartree energy:                                            1154.02258427294873
  Exchange-correlation energy:                               -262.98599210403211

  Total energy:                                             -1101.05805083519704

 ENERGY| Total FORCE_EVAL ( QS ) energy (a.u.):            -1101.058072647107565


 *******************************************************************************
 ENSEMBLE TYPE                =                                              NVE
 STEP NUMBER                  =                                                8
 TIME [fs]                    =                                         4.000000
 CONSERVED QUANTITY [hartree] =                              -0.110076580471E+04

                                              INSTANTANEOUS             AVERAGES
 CPU TIME [s]                 =                        6.58                15.54
 ENERGY DRIFT PER ATOM [K]    =         -0.114888013815E+02  -0.110051780055E+02
 POTENTIAL ENERGY[hartree]    =         -0.110105807265E+04  -0.110107617186E+04
 KINETIC ENERGY [hartree]     =          0.292267936071E+00   0.309821019808E+00
 TEMPERATURE [K]              =                     322.132              341.479
 *******************************************************************************


 Number of electrons:                                                        512
 Number of occupied orbitals:                                                256
 Number of molecular orbitals:                                               256

 Number of orbital functions:                                               2560
 Number of independent orbital functions:                                   2560

 Extrapolation method: PS Nth order


 SCF WAVEFUNCTION OPTIMIZATION

  ----------------------------------- OT ---------------------------------------
  Minimizer      : DIIS                : direct inversion
                                         in the iterative subspace
                                         using   7 DIIS vectors
                                         safer DIIS on
  Preconditioner : FULL_KINETIC        : inversion of T + eS
  Precond_solver : DEFAULT
  stepsize       :    0.15000000                  energy_gap     :    0.20000000
  eps_taylor     :   0.10000E-15                  max_taylor     :             4
  ----------------------------------- OT ---------------------------------------

  Step     Update method      Time    Convergence         Total energy    Change
  ------------------------------------------------------------------------------
     1 OT DIIS     0.15E+00    1.2     0.00004063     -1101.0348904328 -1.10E+03
     2 OT DIIS     0.15E+00    1.1     0.00003307     -1101.0350368939 -1.46E-04
     3 OT DIIS     0.15E+00    1.1     0.00001525     -1101.0353096358 -2.73E-04
     4 OT DIIS     0.15E+00    1.1     0.00001093     -1101.0353590214 -4.94E-05
     5 OT DIIS     0.15E+00    1.1     0.00000786     -1101.0353880728 -2.91E-05

  *** SCF run converged in     5 steps ***


  Electronic density on regular grids:       -512.0000004818       -0.0000004818
  Core density on regular grids:              511.9999999968       -0.0000000032
  Total charge density on r-space grids:       -0.0000004851
  Total charge density g-space grids:          -0.0000004851

  Overlap energy of the core charge distribution:               0.00000043858940
  Self energy of the core charge distribution:              -2805.30499493854950
  Core Hamiltonian energy:                                    812.31303126914008
  Hartree energy:                                            1154.69416749630591
  Exchange-correlation energy:                               -262.73759233824694

  Total energy:                                             -1101.03538807276118

 ENERGY| Total FORCE_EVAL ( QS ) energy (a.u.):            -1101.035410333149230


 *******************************************************************************
 ENSEMBLE TYPE                =                                              NVE
 STEP NUMBER                  =                                                9
 TIME [fs]                    =                                         4.500000
 CONSERVED QUANTITY [hartree] =                              -0.110076529419E+04

                                              INSTANTANEOUS             AVERAGES
 CPU TIME [s]                 =                        7.75                14.67
 ENERGY DRIFT PER ATOM [K]    =         -0.106491653541E+02  -0.109656210443E+02
 POTENTIAL ENERGY[hartree]    =         -0.110103541033E+04  -0.110107164280E+04
 KINETIC ENERGY [hartree]     =          0.270116144786E+00   0.305409367028E+00
 TEMPERATURE [K]              =                     297.717              336.616
 *******************************************************************************


 Number of electrons:                                                        512
 Number of occupied orbitals:                                                256
 Number of molecular orbitals:                                               256

 Number of orbital functions:                                               2560
 Number of independent orbital functions:                                   2560

 Extrapolation method: PS Nth order


 SCF WAVEFUNCTION OPTIMIZATION

  ----------------------------------- OT ---------------------------------------
  Minimizer      : DIIS                : direct inversion
                                         in the iterative subspace
                                         using   7 DIIS vectors
                                         safer DIIS on
  Preconditioner : FULL_KINETIC        : inversion of T + eS
  Precond_solver : DEFAULT
  stepsize       :    0.15000000                  energy_gap     :    0.20000000
  eps_taylor     :   0.10000E-15                  max_taylor     :             4
  ----------------------------------- OT ---------------------------------------

  Step     Update method      Time    Convergence         Total energy    Change
  ------------------------------------------------------------------------------
     1 OT DIIS     0.15E+00    1.1     0.00004272     -1101.0227185823 -1.10E+03
     2 OT DIIS     0.15E+00    1.1     0.00003547     -1101.0228816341 -1.63E-04
     3 OT DIIS     0.15E+00    1.1     0.00001954     -1101.0231905787 -3.09E-04
     4 OT DIIS     0.15E+00    1.0     0.00001351     -1101.0232865832 -9.60E-05
     5 OT DIIS     0.15E+00    1.1     0.00000909     -1101.0233423692 -5.58E-05

  *** SCF run converged in     5 steps ***


  Electronic density on regular grids:       -512.0000003316       -0.0000003316
  Core density on regular grids:              511.9999999981       -0.0000000019
  Total charge density on r-space grids:       -0.0000003335
  Total charge density g-space grids:          -0.0000003335

  Overlap energy of the core charge distribution:               0.00000042270337
  Self energy of the core charge distribution:              -2805.30499493854950
  Core Hamiltonian energy:                                    811.91272338367583
  Hartree energy:                                            1154.99784951710899
  Exchange-correlation energy:                               -262.62892075412333

  Total energy:                                             -1101.02334236918432

 ENERGY| Total FORCE_EVAL ( QS ) energy (a.u.):            -1101.023374986880299


 *******************************************************************************
 ENSEMBLE TYPE                =                                              NVE
 STEP NUMBER                  =                                               10
 TIME [fs]                    =                                         5.000000
 CONSERVED QUANTITY [hartree] =                              -0.110076505584E+04

                                              INSTANTANEOUS             AVERAGES
 CPU TIME [s]                 =                        7.44                13.95
 ENERGY DRIFT PER ATOM [K]    =         -0.102571584324E+02  -0.108947747831E+02
 POTENTIAL ENERGY[hartree]    =         -0.110102337499E+04  -0.110106681602E+04
 KINETIC ENERGY [hartree]     =          0.258319149916E+00   0.300700345317E+00
 TEMPERATURE [K]              =                     284.714              331.426
 *******************************************************************************


 -------------------------------------------------------------------------------
 -                                                                             -
 -                                DBCSR STATISTICS                             -
 -                                                                             -
 -------------------------------------------------------------------------------
 COUNTER                                    TOTAL       BLAS       SMM       ACC
 flops    9 x   32 x   32               207618048     100.0%      0.0%      0.0%
 flops   22 x   32 x   32               253755392     100.0%      0.0%      0.0%
 flops   64 x   32 x   32             26877100032     100.0%      0.0%      0.0%
 flops    9 x    9 x   32             44168260608     100.0%      0.0%      0.0%
 flops   22 x    9 x   32             53835724800     100.0%      0.0%      0.0%
 flops    9 x   22 x   32             53885500416     100.0%      0.0%      0.0%
 flops   22 x   22 x   32             67007283200     100.0%      0.0%      0.0%
 flops   64 x   32 x  320            141264158720     100.0%      0.0%      0.0%
 flops  640 x   32 x   32            173811957760     100.0%      0.0%      0.0%
 flops    9 x   32 x    9            185405884416     100.0%      0.0%      0.0%
 flops   22 x   32 x    9            227871249408     100.0%      0.0%      0.0%
 flops    9 x   32 x   22            227871249408     100.0%      0.0%      0.0%
 flops   22 x   32 x   22            279130931200     100.0%      0.0%      0.0%
 flops  640 x   32 x  320            399297740800     100.0%      0.0%      0.0%
 flops total                        1880888414208     100.0%      0.0%      0.0%
 flops max/rank                       59051995008     100.0%      0.0%      0.0%
 matmuls inhomo. stacks                         0       0.0%      0.0%      0.0%
 matmuls total                          100417592     100.0%      0.0%      0.0%
 number of processed stacks                891328     100.0%      0.0%      0.0%
 average stack size                                   112.7       0.0       0.0
 marketing flops                     2.107587E+12
 -------------------------------------------------------------------------------
 max memory usage/rank             133.267456E+06
 # max total images/rank                        2
 # MPI messages exchanged                 1536192
 # MPI messages filtered                        0
 MPI messages size (elements):
  total size                        28.303921E+09
  min size                           0.000000E+00
  max size                         204.800000E+03
  average size                      18.424729E+03
 MPI breakdown and total messages size (bytes):
             size <=      128               11704                        0
       128 < size <=     8192              591528               4845797376
      8192 < size <=    32768              179424               2939682816
     32768 < size <=   131072              423360              34681651200
    131072 < size <=  4194304              330176             183964913216
   4194304 < size <= 16777216                   0                        0
  16777216 < size                               0                        0
 -------------------------------------------------------------------------------
 Warning: using a non-square number of MPI ranks might lead to poor performance.
          used ranks: 32
          suggested : 36 64
 -------------------------------------------------------------------------------

 MEMORY| Estimated peak process memory [MiB]                                 128

 -------------------------------------------------------------------------------
 -                                                                             -
 -                         MESSAGE PASSING PERFORMANCE                         -
 -                                                                             -
 -------------------------------------------------------------------------------

 ROUTINE             CALLS  TOT TIME [s]  AVE VOLUME [Bytes]  PERFORMANCE [MB/s]
 MP_Group                5         0.000
 MP_Bcast             3619         0.207              51900.              909.54
 MP_Allreduce        15184         9.295                212.                0.35
 MP_Gather              44         0.096                640.                0.29
 MP_Sync                54         0.018
 MP_Alltoall          9744        22.162             503909.              221.56
 MP_ISendRecv        14756         0.039              19000.             7266.83
 MP_Wait            219980        23.647
 MP_comm_split          50         0.003
 MP_ISend           136472         0.504              73296.            19830.96
 MP_IRecv           136472         0.271              73361.            36936.52
 MP_Memory          130406         0.060
 -------------------------------------------------------------------------------


 -------------------------------------------------------------------------------
 -                                                                             -
 -                           R E F E R E N C E S                               -
 -                                                                             -
 -------------------------------------------------------------------------------
 
 CP2K version 3.0, the CP2K developers group (2015).
 CP2K is freely available from https://www.cp2k.org/ .

 Borstnik, U; VandeVondele, J; Weber, V; Hutter, J. 
 PARALLEL COMPUTING, 40 (5-6), 47-58 (2014). 
 Sparse matrix multiplication: The distributed block-compressed sparse
 row library.
 http://dx.doi.org/10.1016/j.parco.2014.03.012


 Hutter, J; Iannuzzi, M; Schiffmann, F; VandeVondele, J. 
 WILEY INTERDISCIPLINARY REVIEWS-COMPUTATIONAL MOLECULAR SCIENCE, 4 (1), 15-25 (2014). 
 CP2K: atomistic simulations of condensed matter systems.
 http://dx.doi.org/10.1002/wcms.1159


 Krack, M. 
 THEORETICAL CHEMISTRY ACCOUNTS, 114 (1-3), 145-152 (2005). 
 Pseudopotentials for H to Kr optimized for gradient-corrected
 exchange-correlation functionals.
 http://dx.doi.org/10.1007/s00214-005-0655-y


 VandeVondele, J; Krack, M; Mohamed, F; Parrinello, M; Chassaing, T;
 Hutter, J. COMPUTER PHYSICS COMMUNICATIONS, 167 (2), 103-128 (2005). 
 QUICKSTEP: Fast and accurate density functional calculations using a
 mixed Gaussian and plane waves approach.
 http://dx.doi.org/10.1016/j.cpc.2004.12.014


 Frigo, M; Johnson, SG. 
 PROCEEDINGS OF THE IEEE, 93 (2), 216-231 (2005). 
 The design and implementation of FFTW3.
 http://dx.doi.org/10.1109/JPROC.2004.840301


 VandeVondele, J; Hutter, J. 
 JOURNAL OF CHEMICAL PHYSICS, 118 (10), 4365-4369 (2003). 
 An efficient orbital transformation method for electronic structure
 calculations.
 http://dx.doi.org/10.1063/1.1543154


 Hartwigsen, C; Goedecker, S; Hutter, J. 
 PHYSICAL REVIEW B, 58 (7), 3641-3662 (1998). 
 Relativistic separable dual-space Gaussian pseudopotentials from H to Rn.
 http://dx.doi.org/10.1103/PhysRevB.58.3641


 Lippert, G; Hutter, J; Parrinello, M. 
 MOLECULAR PHYSICS, 92 (3), 477-487 (1997). 
 A hybrid Gaussian and plane wave density functional scheme.
 http://dx.doi.org/10.1080/002689797170220


 Goedecker, S; Teter, M; Hutter, J. 
 PHYSICAL REVIEW B, 54 (3), 1703-1710 (1996). 
 Separable dual-space Gaussian pseudopotentials.
 http://dx.doi.org/10.1103/PhysRevB.54.1703


 -------------------------------------------------------------------------------
 -                                                                             -
 -                                T I M I N G                                  -
 -                                                                             -
 -------------------------------------------------------------------------------
 SUBROUTINE                       CALLS  ASD         SELF TIME        TOTAL TIME
                                MAXIMUM       AVERAGE  MAXIMUM  AVERAGE  MAXIMUM
 CP2K                                 1  1.0    0.064    0.075  139.878  139.880
 qs_mol_dyn_low                       1  2.0    0.009    0.013  139.506  139.523
 qs_forces                           11  3.9    0.154    0.185  139.386  139.396
 qs_energies                         11  4.9    0.004    0.014  131.302  131.334
 scf_env_do_scf                      11  5.9    0.001    0.002  121.540  121.542
 scf_env_do_scf_inner_loop          108  6.5    0.007    0.021  111.411  111.412
 velocity_verlet                     10  3.0    0.007    0.013   83.022   83.025
 rebuild_ks_matrix                  119  8.3    0.001    0.002   60.276   60.522
 qs_ks_build_kohn_sham_matrix       119  9.3    0.042    0.056   60.275   60.521
 qs_ks_update_qs_env                119  7.6    0.001    0.001   54.641   54.869
 sum_up_and_integrate               119 10.3    0.035    0.043   50.569   50.691
 integrate_v_rspace                 119 11.3   33.585   36.869   50.534   50.656
 qs_rho_update_rho                  119  7.7    0.001    0.001   37.221   37.470
 calculate_rho_elec                 119  8.7   20.708   21.637   37.220   37.469
 dbcsr_mm_cannon_multiply          2286 12.5    3.557    4.186   32.756   33.212
 qs_scf_new_mos                     108  7.5    0.001    0.001   28.677   28.832
 qs_scf_loop_do_ot                  108  8.5    0.000    0.000   28.677   28.831
 ot_scf_mini                        108  9.5    0.006    0.025   26.465   26.620
 cannon_multiply_low               2286 13.5    2.727    3.969   22.926   24.460
 density_rs2pw                      119  9.7    0.004    0.004   14.606   15.184
 ot_mini                            108 10.5    0.005    0.010   14.750   14.936
 rs_pw_transfer                     974 11.9    0.016    0.019   13.884   14.630
 rs_distribute_matrix               249 10.9   10.449   12.792   10.691   12.991
 pw_transfer                       1439 11.6    0.077    0.087   10.766   11.333
 fft_wrap_pw1pw2                   1201 12.6    0.010    0.011   10.610   11.168
 fft3d_ps                          1201 14.6    2.086    2.244    9.774   10.307
 init_scf_loop                       11  6.9    0.001    0.002   10.115   10.117
 rs_pw_transfer_RS2PW_140           130 11.5    8.433    9.184    8.433    9.184
 qs_ot_get_derivative               108 11.5    0.002    0.002    8.834    8.984
 cannon_multiply_low_metrocomm3   18288 14.5    6.240    8.012    6.240    8.012
 cannon_multiply_low_multrec      18288 14.5    7.178    7.711    7.190    7.723
 fft_wrap_pw1pw2_140                487 13.2    0.279    0.306    6.687    7.717
 potential_pw2rs                    119 12.3    0.005    0.006    7.517    7.550
 cannon_multiply_low_metrocomm1   18288 14.5    5.863    7.047    5.863    7.047
 init_scf_run                        11  5.9    0.001    0.006    6.473    6.476
 scf_env_initial_rho_setup           11  6.9    0.000    0.001    6.472    6.475
 dbcsr_make_images                 4572 13.5    0.005    0.005    5.377    6.178
 make_images                       4572 14.5    0.328    0.351    5.372    6.173
 qs_ks_update_qs_env_forces          11  4.9    0.000    0.000    5.854    5.893
 wfi_extrapolate                     11  7.9    0.013    0.023    5.809    5.814
 ot_diis_step                       108 11.5    0.004    0.005    5.782    5.787
 qs_ot_get_p                        119 10.4    0.082    0.109    5.497    5.714
 apply_preconditioner_dbcsr         119 12.6    0.000    0.000    4.950    5.140
 apply_single                       119 13.6    0.001    0.001    4.950    5.140
 yz_to_x                            487 15.3    4.049    4.284    4.049    4.284
 x_to_yz                            476 15.9    3.366    3.790    3.366    3.790
 make_images_data                  4572 15.5    0.588    1.189    2.548    3.575
 prepare_preconditioner              11  7.9    0.000    0.000    3.512    3.552
 make_preconditioner                 11  8.9    0.000    0.000    3.512    3.552
 make_full_inverse_cholesky          11  9.9    0.000    0.000    3.236    3.293
 qs_ot_get_derivative_diag           49 12.0    0.002    0.002    2.994    3.083
 qs_ot_get_derivative_taylor         59 13.0    0.002    0.002    2.946    3.051
 qs_energies_init_hamiltonians       11  5.9    0.006    0.013    2.749    2.756
 calculate_dm_sparse                119  9.5    0.001    0.001    2.495    2.679
 hybrid_alltoall_any               4572 16.5    1.959    2.621    1.959    2.621
 make_images_sizes                 4572 15.5    1.692    2.500    1.692    2.500
 rs_pw_transfer_PW2RS_140           130 13.9    2.029    2.323    2.194    2.487
 fft_wrap_pw1pw2_50                 238 14.0    0.024    0.039    1.584    2.344
 fft_wrap_pw1pw2_20                 238 14.0    0.005    0.007    2.049    2.253
 qs_ot_p2m_diag                      50 11.0    0.012    0.017    2.219    2.232
 cp_dbcsr_sm_fm_multiply             37  9.5    0.001    0.004    2.168    2.225
 cp_dbcsr_syevd                      50 12.0    0.020    0.030    2.029    2.039
 qs_env_update_s_mstruct             11  6.9    0.000    0.000    1.998    2.039
 cp_fm_syevd                         50 13.0    1.536    1.991    1.987    1.991
 cp_dbcsr_sm_fm_multiply_core        37 10.5    0.000    0.003    1.691    1.821
 cp_fm_cholesky_invert               11 10.9    1.763    1.821    1.763    1.821
 cp_fm_syevd_base                    50 14.0    0.451    1.806    0.451    1.806
 qs_vxc_create                      119 10.3    0.003    0.005    1.662    1.788
 xc_vxc_pw_create                   119 11.3    1.090    1.270    1.660    1.785
 dbcsr_trace_a_b_d                 1205 11.9    1.529    1.710    1.529    1.710
 qs_ot_get_orbitals                 108 10.5    0.001    0.001    1.542    1.602
 build_core_hamiltonian_matrix_      11  4.9    0.000    0.000    1.335    1.530
 rs_pw_transfer_PW2RS_50            119 14.3    1.226    1.444    1.264    1.480
 qs_create_task_list                 11  7.9    0.000    0.000    1.283    1.304
 generate_qs_task_list               11  8.9    0.202    0.239    1.283    1.304
 dbcsr_complete_redistribute        329 12.2    0.976    1.137    1.026    1.190
 cp_fm_cholesky_decompose            22 10.9    1.148    1.165    1.148    1.165
 distribute_tasks                    11  9.9    0.047    0.065    1.081    1.117
 rs_pw_transfer_PW2RS_20            119 14.3    0.813    1.023    0.813    1.023
 rs_pw_transfer_RS2PW_50            119 11.7    0.917    0.935    0.917    0.935
 calculate_ecore_overlap             22  5.9    0.807    0.932    0.807    0.932
 build_core_hamiltonian_matrix       11  6.9    0.000    0.000    0.643    0.898
 build_core_ppl_forces               11  5.9    0.716    0.865    0.716    0.865
 dbcsr_finalize                    5835 13.6    0.018    0.025    0.673    0.807
 make_basis_sm                       11  9.8    0.063    0.076    0.785    0.799
 calculate_rho_core                  11  7.9    0.021    0.024    0.710    0.766
 dbcsr_merge_all                   4914 14.8    0.196    0.237    0.632    0.766
 ot_scf_init                         11  7.9    0.001    0.001    0.759    0.761
 get_current_loads                  132 11.9    0.703    0.748    0.703    0.748
 copy_dbcsr_to_fm                   153 11.3    0.019    0.024    0.577    0.714
 reorthogonalize_vectors             10  9.0    0.000    0.000    0.699    0.712
 cp_dbcsr_plus_fm_fm_t_native        22  8.9    0.001    0.002    0.643    0.692
 load_balance_distributed            22 10.9    0.000    0.000    0.630    0.662
 xc_rho_set_and_dset_create         119 12.3    0.003    0.005    0.570    0.649
 make_images_pack                  4572 15.5    0.573    0.622    0.590    0.640
 xc_functional_eval                 119 13.3    0.538    0.612    0.538    0.612
 dbcsr_arnoldi_extremal             119 11.4    0.002    0.004    0.560    0.601
 dbcsr_arnoldi_normal_ev            119 12.4    0.002    0.007    0.559    0.600
 build_core_ppl                      11  7.9    0.396    0.584    0.396    0.584
 copy_fm_to_dbcsr                   176 11.2    0.022    0.026    0.498    0.574
 compute_load_list                   44 11.9    0.179    0.233    0.533    0.566
 qs_energies_compute_matrix_w        11  5.9    0.000    0.000    0.484    0.507
 calculate_w_matrix_ot               11  6.9    0.015    0.023    0.484    0.507
 rs_grid_zero                       736 11.5    0.454    0.493    0.454    0.493
 cp_gemm                             81  9.0    0.000    0.000    0.442    0.460
 cp_gemm_fm_gemm                     81 10.0    0.001    0.005    0.442    0.460
 cp_fm_gemm                          81 11.0    0.441    0.459    0.441    0.459
 buffer_matrices_ensure_size       4572 14.5    0.385    0.432    0.385    0.432
 build_subspace                     119 13.4    0.087    0.146    0.345    0.403
 dbcsr_make_images_dense           3978 13.8    0.028    0.034    0.342    0.382
 dbcsr_make_dense_low              7826 14.8    0.035    0.052    0.337    0.379
 pw_poisson_solve                   119 10.3    0.266    0.270    0.363    0.364
 build_overlap_matrix                22  6.9    0.253    0.341    0.262    0.350
 build_kinetic_matrix                22  6.9    0.265    0.335    0.270    0.340
 transfer_fm_to_dbcsr                11  9.9    0.000    0.000    0.272    0.338
 cannon_multiply_low_metrocomm2   32004 14.5    0.229    0.327    0.229    0.327
 build_core_ppnl_forces              11  5.9    0.259    0.313    0.259    0.313
 calculate_first_density_matrix       1  7.0    0.001    0.007    0.299    0.308
 pw_scatter_p                       595 15.2    0.276    0.304    0.276    0.304
 transfer_dbcsr_to_fm                11 10.9    0.120    0.159    0.257    0.299
 make_dense_data                   7826 15.8    0.232    0.265    0.265    0.299
 dbcsr_matrix_colvec_multiply_l    1669 14.0    0.002    0.003    0.277    0.291
 fft_wrap_pw1pw2_10                 238 14.0    0.002    0.002    0.280    0.289
 dbcsr_matrix_vector_mult          1669 15.0    0.047    0.055    0.275    0.289
 pw_gather_p                        606 14.1    0.241    0.273    0.241    0.273
 dbcsr_data_copyall                1821 13.5    0.208    0.267    0.208    0.267
 dbcsr_copy                        6804 12.3    0.032    0.043    0.232    0.263
 external_control                   118  7.2    0.170    0.247    0.170    0.247
 tree_to_linear_d                  1073 14.6    0.185    0.245    0.186    0.246
 dbcsr_data_release              172993 15.8    0.095    0.107    0.205    0.245
 pw_copy                            952 12.7    0.204    0.233    0.204    0.233
 integrate_v_core_rspace             11  7.9    0.008    0.020    0.204    0.232
 evaluate_core_matrix_traces        119  8.3    0.000    0.001    0.218    0.223
 calculate_ptrace_kp                238  9.3    0.001    0.001    0.218    0.222
 dbcsr_col_vec_to_rep_row          1669 16.0    0.190    0.215    0.195    0.221
 dbcsr_create_new                 41621 14.3    0.099    0.110    0.200    0.220
 arnoldi_init                       119 13.4    0.069    0.156    0.143    0.208
 dbcsr_destroy                    35645 13.7    0.049    0.052    0.163    0.205
 dbcsr_new_transposed               954 13.3    0.007    0.008    0.167    0.202
 dbcsr_data_copy_aa2               2836 15.1    0.158    0.196    0.158    0.196
 dbcsr_redistribute                 145 14.7    0.142    0.178    0.146    0.182
 rs_pw_transfer_RS2PW_20            119 11.7    0.164    0.175    0.164    0.175
 qs_init_subsys                       1  2.0    0.004    0.009    0.158    0.168
 cp_fm_upper_to_full                 22 12.4    0.103    0.163    0.103    0.163
 dbcsr_data_new                   94684 15.4    0.078    0.096    0.136    0.156
 qs_env_setup                         1  3.0    0.003    0.012    0.146    0.156
 internal_data_deallocate         58749 16.5    0.111    0.153    0.111    0.153
 dbcsr_special_finalize            6858 15.5    0.010    0.011    0.125    0.143
 qs_env_rebuild_pw_env               23  5.3    0.002    0.010    0.132    0.140
 xz_to_yz                           119 14.7    0.102    0.135    0.102    0.135
 pw_env_rebuild                       1  5.0    0.006    0.009    0.130    0.132
 dbcsr_make_dense                  1859 13.9    0.006    0.007    0.098    0.119
 dbcsr_add_d                       1881 12.8    0.002    0.002    0.095    0.113
 yz_to_xz                           119 17.3    0.097    0.112    0.097    0.112
 dbcsr_add_anytype                 1881 13.8    0.044    0.061    0.093    0.111
 qs_ot_p2m_taylor                    69 11.7    0.001    0.003    0.108    0.111
 load_balance_replicated             11 10.9    0.011    0.012    0.109    0.110
 optimize_load_list                  22 11.9    0.097    0.107    0.097    0.107
 cannon_multiply_low_metrocomm4   16002 14.5    0.086    0.102    0.086    0.102
 dbcsr_make_undense                1859 13.9    0.051    0.070    0.079    0.099
 quick_finalize                    6673 16.6    0.027    0.034    0.085    0.098
 pw_axpy                            595 10.6    0.083    0.095    0.083    0.095
 merge_index                       4914 15.8    0.073    0.085    0.073    0.085
 dbcsr_iterator_start             34605 16.0    0.042    0.060    0.064    0.082
 dbcsr_add_wm_from_matrix           443 12.9    0.001    0.001    0.050    0.080
 build_core_ppnl                     11  7.9    0.069    0.078    0.069    0.078
 pw_grid_setup                        4  6.0    0.000    0.002    0.077    0.078
 dbcsr_fill_wm_from_matrix          443 13.9    0.008    0.008    0.047    0.077
 pw_grid_setup_internal               4  7.0    0.025    0.032    0.076    0.077
 create_qs_kind_set                   1  2.0    0.000    0.003    0.074    0.076
 read_qs_kind                         2  3.0    0.015    0.019    0.074    0.076
 setup_buffer_matrices             4572 14.5    0.029    0.036    0.062    0.076
 dbcsr_sort_indices               12158 16.5    0.063    0.074    0.063    0.074
 update_particle_set                 20  4.0    0.064    0.072    0.064    0.072
 dbcsr_make_untransposed_blocks    2729 13.4    0.043    0.061    0.054    0.072
 dbcsr_mm_multrec_init             2286 14.5    0.006    0.008    0.062    0.068
 cube_transpose_2                   119 14.7    0.031    0.068    0.031    0.068
 internal_data_allocate           58749 16.4    0.061    0.067    0.061    0.067
 get_fft_scratch                   1202 15.6    0.055    0.066    0.055    0.066
 dbcsr_mm_csr_init                 2286 15.5    0.038    0.044    0.057    0.063
 md_write_output                     11  3.9    0.001    0.023    0.004    0.062
 compute_evals                      119 13.4    0.058    0.061    0.058    0.061
 setup_rec_index                   4572 14.5    0.004    0.004    0.047    0.061
 parser_read_line                  2671  4.0    0.002    0.002    0.059    0.060
 parser_read_line_low                 4  5.0    0.004    0.026    0.057    0.058
 call_rec_sort_index               6814 15.5    0.043    0.057    0.043    0.057
 dbcsr_set_anytype                  603 11.9    0.034    0.053    0.037    0.056
 broadcast_input_information          4  6.0    0.053    0.056    0.053    0.056
 dbcsr_switch_data_area           22593 15.6    0.016    0.020    0.046    0.055
 md_output                           10  3.0    0.000    0.000    0.006    0.052
 rs_pw_transfer_PW2RS_10            119 14.3    0.043    0.051    0.043    0.051
 dbcsr_iterator_stop              34605 16.0    0.027    0.036    0.042    0.050
 cp_fm_create                       325 12.0    0.013    0.049    0.013    0.049
 cp_dbcsr_cholesky_decompose         11 12.9    0.030    0.043    0.034    0.047
 dbcsr_make_dists_dense            1989 13.8    0.019    0.038    0.027    0.045
 create_local_tasks                  11 10.9    0.044    0.045    0.044    0.045
 rs_pw_transfer_RS2PW_10            119 11.7    0.039    0.043    0.039    0.043
 build_qs_neighbor_lists             11  6.9    0.001    0.002    0.035    0.041
 dbcsr_make_index_exist           27905 14.7    0.034    0.041    0.034    0.041
 cube_transpose_1                   119 17.3    0.010    0.041    0.010    0.041
 dbcsr_make_index_list             6858 13.5    0.019    0.040    0.019    0.040
 write_trajectory                    44  4.9    0.002    0.025    0.002    0.039
 Gram_Schmidt_ortho_d              1550 14.0    0.030    0.038    0.030    0.038
 dbcsr_work_create                12421 14.8    0.019    0.027    0.030    0.038
 pw_zero                            119 10.7    0.036    0.037    0.036    0.037
 compute_max_radius                   1  6.0    0.020    0.036    0.020    0.036
 dbcsr_finalize_lib                   1  2.0    0.034    0.035    0.034    0.035
 cp_fm_triangular_multiply           11 10.8    0.027    0.035    0.027    0.035
 dbcsr_distribution_new           12473 14.0    0.026    0.034    0.026    0.034
 dbcsr_merge_single_wm              854 14.5    0.006    0.009    0.026    0.030
 DGKS_ortho_d                      1550 14.0    0.025    0.029    0.025    0.029
 pw_grid_sort                         4  8.0    0.008    0.009    0.016    0.028
 dbcsr_cholesky_invert               11 12.9    0.020    0.022    0.027    0.027
 rs_grid_create_descriptor            4  6.0    0.026    0.027    0.026    0.027
 pw_grid_remap                        4  8.0    0.020    0.026    0.020    0.026
 dbcsr_iterator_seek              34605 17.0    0.022    0.025    0.022    0.025
 dbcsr_make_index_local_row        6858 13.5    0.010    0.025    0.010    0.025
 qs_scf_ensure_work_matrices         11  5.9    0.020    0.024    0.020    0.024
 topology_control                     1  2.0    0.005    0.012    0.019    0.024
 wfs_update                          11  5.9    0.008    0.017    0.015    0.024
 restraint_control                   11  3.9    0.021    0.023    0.021    0.024
 dbcsr_work_destroy_all           12421 15.7    0.012    0.014    0.020    0.023
 fft3d_s                              1  2.0    0.000    0.001    0.021    0.022
 cp_dbcsr_alloc_block_from_nbl       66  7.9    0.005    0.008    0.018    0.021
 sort_shells                          4  9.0    0.008    0.021    0.008    0.021
 dbcsr_sort_data                    854 15.5    0.014    0.018    0.014    0.018
 create_fast_row_vec_access        1669 16.0    0.001    0.002    0.009    0.018
 dbcsr_hadamard_product              98 13.0    0.005    0.016    0.007    0.018
 dbcsr_reserve_blocks               542 14.6    0.013    0.015    0.015    0.018
 create_fast_row_vec_access_d      1669 17.0    0.002    0.003    0.007    0.017
 calculate_atomic_block_dm            1  8.0    0.002    0.010    0.015    0.017
 dbcsr_make_dbcsr_index           14177 16.5    0.015    0.016    0.015    0.016
 connectivity_control                 1  3.0    0.002    0.011    0.008    0.015
 fill_hash_tables                  2286 16.5    0.014    0.015    0.014    0.015
 write_particle_coordinates          11  5.9    0.000    0.014    0.000    0.014
 dbcsr_scale_anytype               2109 14.8    0.005    0.014    0.006    0.014
 dbcsr_index_prune_deleted         5967 14.8    0.010    0.014    0.010    0.014
 dbcsr_scale_d                      228 13.5    0.000    0.000    0.005    0.014
 build_neighbor_lists_sap_ppnl       11  7.9    0.007    0.014    0.007    0.014
 pw_scale                           119 10.3    0.010    0.014    0.010    0.014
 build_neighbor_lists_sac_ppl        11  7.9    0.013    0.013    0.013    0.013
 dbcsr_mm_multrec_finalize         2286 15.5    0.009    0.010    0.011    0.012
 pw_grid_distribute                   4  8.0    0.010    0.011    0.010    0.011
 dbcsr_matrix_vector_mult_local    1669 16.0    0.005    0.006    0.010    0.010
 mpools_rebuild_fm_pools              1  4.0    0.009    0.010    0.009    0.010
 write_restart                       10  4.0    0.000    0.004    0.003    0.010
 cp_fm_release                      330 11.7    0.008    0.009    0.008    0.009
 topology_connectivity_pack           1  3.0    0.000    0.000    0.004    0.009
 update_input                         1  5.0    0.001    0.008    0.003    0.009
 calculate_atom                       2  9.0    0.000    0.000    0.007    0.009
 calculate_atom_restricted            2 10.0    0.006    0.009    0.007    0.009
 topology_connectivity_pack_5         1  4.0    0.001    0.009    0.001    0.009
 create_fast_col_vec_access        1669 16.0    0.001    0.001    0.007    0.008
 dbcsr_get_data_size_used          5563 14.8    0.007    0.008    0.007    0.008
 topology_connectivity_pack_13        1  4.0    0.001    0.007    0.001    0.007
 build_neighbor_lists_sab_all        11  7.9    0.007    0.007    0.007    0.007
 rot_ana                              1  3.0    0.000    0.000    0.006    0.007
 diamat_all                           1  4.0    0.006    0.007    0.006    0.007
 build_neighbor_lists_sab_orb        11  7.9    0.006    0.007    0.006    0.007
 create_fast_col_vec_access_d      1669 17.0    0.002    0.002    0.006    0.007
 topology_coordinate_pack             1  3.0    0.000    0.000    0.001    0.006
 topology_connectivity_pack_4         1  4.0    0.001    0.006    0.001    0.006
 dbcsr_get_local_cols              4145 14.1    0.006    0.006    0.006    0.006
 topology_coordinate_pack_6           1  4.0    0.001    0.006    0.001    0.006
 setup_velocities                     1  3.0    0.001    0.006    0.004    0.006
 initialize_velocities                1  4.0    0.003    0.006    0.003    0.006
 dbcsr_get_local_rows              4145 14.1    0.006    0.006    0.006    0.006
 pw_pool_give_back_pw              2867 12.0    0.004    0.006    0.004    0.006
 init_interaction_radii               1  3.0    0.003    0.006    0.003    0.006
 make_full_kinetic                   11  9.9    0.000    0.000    0.005    0.006
 atom_ppint_setup                     2  9.0    0.001    0.005    0.002    0.005
 topology_constraint_pack             1  3.0    0.000    0.000    0.001    0.005
 topology_constraint_pack_2           1  4.0    0.000    0.005    0.000    0.005
 create_col_vec_from_matrix         238 13.4    0.001    0.002    0.004    0.005
 transpose_index_local              954 14.3    0.002    0.002    0.005    0.005
 cp_fm_init_random                    1  8.0    0.005    0.005    0.005    0.005
 qs_env_rebuild_rho                  11  7.9    0.000    0.000    0.005    0.005
 qs_rho_rebuild                      11  8.9    0.000    0.000    0.005    0.005
 topology_generate_bond               1  4.0    0.000    0.000    0.004    0.005
 distribute_molecules_1d              1  3.0    0.001    0.005    0.001    0.005
 dbcsr_add_on_diag_anytype          138 12.7    0.001    0.002    0.003    0.005
 topology_constraint_pack_6           1  4.0    0.000    0.005    0.000    0.005
 scf_post_calculation_gpw            11  5.9    0.001    0.003    0.003    0.005
 atom_relint_setup                    2  9.0    0.001    0.005    0.001    0.005
 sg_erf                               5 10.0    0.000    0.005    0.000    0.005
 topology_connectivity_pack_6         1  4.0    0.000    0.005    0.000    0.005
 dbcsr_scale_by_vector_anytype      208 11.2    0.003    0.004    0.004    0.004
 write_qs_particle_coordinates        1  3.0    0.000    0.004    0.000    0.004
 pw_grid_assign                       4  8.0    0.004    0.004    0.004    0.004
 topology_connectivity_pack_10        1  4.0    0.000    0.004    0.000    0.004
 scf_c_create                         1  3.0    0.000    0.004    0.000    0.004
 topology_generate_onfo               1  4.0    0.000    0.004    0.000    0.004
 distribute_molecules_2d              1  4.0    0.001    0.004    0.001    0.004
 dbcsr_mm_sched_init               2286 16.5    0.002    0.003    0.004    0.004
 write_qs_control                     1  3.0    0.001    0.004    0.001    0.004
 atom_int_setup                       2  9.0    0.002    0.004    0.002    0.004
 write_available_results             11  6.9    0.000    0.000    0.001    0.004
 dbcsr_reserve_all_blocks           476 14.4    0.001    0.001    0.003    0.004
 kpoint_initialize                    1  2.0    0.000    0.004    0.000    0.004
 pw_pool_create_pw                 2416 11.8    0.003    0.003    0.003    0.004
 write_molecule_kind_set              1  3.0    0.000    0.004    0.000    0.004
 cp_result_create                     1  2.0    0.000    0.004    0.000    0.004
 topology_constraint_pack_7           1  4.0    0.000    0.003    0.000    0.003
 topology_connectivity_pack_11        1  4.0    0.000    0.003    0.000    0.003
 topology_generate_bond_3             1  5.0    0.000    0.001    0.003    0.003
 build_fist_neighbor_lists            1  6.0    0.002    0.002    0.003    0.003
 topology_generate_molecule           1  4.0    0.001    0.003    0.001    0.003
 write_mo_free_results               11  7.9    0.001    0.003    0.001    0.003
 cp_dbcsr_distribution_new_clus     413  9.1    0.000    0.001    0.001    0.003
 coordinate_control                   1  3.0    0.000    0.000    0.002    0.003
 coordinate_control_READ_COORDI       1  4.0    0.000    0.001    0.002    0.003
 create_grid_atom                     2  9.0    0.000    0.003    0.000    0.003
 read_atoms_input                     1  5.0    0.002    0.003    0.002    0.003
 topology_coordinate_pack_4           1  4.0    0.000    0.003    0.000    0.003
 scf_c_write_parameters               1  3.0    0.000    0.003    0.000    0.003
 build_neighbor_lists                 1  7.0    0.001    0.002    0.001    0.003
 cleanup_scf_loop                    11  7.9    0.000    0.000    0.002    0.003
 dbcsr_zero                        3338 16.5    0.002    0.003    0.002    0.003
 dbcsr_mm_sched_finalize           2286 16.5    0.002    0.003    0.002    0.003
 dbcsr_get_global_row_map          2286 13.5    0.002    0.003    0.002    0.003
 qs_energies_init_kg                 11  5.9    0.000    0.003    0.000    0.003
 write_symmetry                       1  3.0    0.000    0.002    0.000    0.002
 init_qs_kind_set                     1  3.0    0.000    0.000    0.002    0.002
 init_qs_kind                         2  4.0    0.000    0.000    0.002    0.002
 init_orb_basis_set                   2  5.0    0.000    0.000    0.002    0.002
 dbcsr_get_global_col_map          2286 13.5    0.002    0.002    0.002    0.002
 init_cphi_and_sphi                   2  6.0    0.002    0.002    0.002    0.002
 update_subsys                        1  6.0    0.000    0.001    0.001    0.002
 pw_env_create                        1  5.0    0.000    0.002    0.000    0.002
 ot_scf_read_input                   11  7.9    0.000    0.000    0.001    0.002
 build_neighbor_lists_sab_core       11  7.9    0.002    0.002    0.002    0.002
 create_replicated_col_vec_from     119 13.4    0.000    0.000    0.002    0.002
 cp_fm_to_fm_matrix                  21  7.9    0.002    0.002    0.002    0.002
 release_fast_vec_access           3338 16.0    0.002    0.002    0.002    0.002
 ot_readwrite_input                  11  8.9    0.001    0.002    0.001    0.002
 fist_neighbor_init                   1  8.0    0.000    0.002    0.000    0.002
 create_replicated_row_vec_from     119 13.4    0.000    0.000    0.002    0.002
 read_qs_section                      1  3.0    0.001    0.002    0.001    0.002
 write_mo_set_to_restart            108  7.5    0.001    0.002    0.001    0.002
 scf_env_release                      3  4.0    0.000    0.000    0.001    0.002
 destroy_preconditioner               1  3.0    0.000    0.000    0.001    0.002
 qs_scf_loop_print                  108  7.5    0.001    0.002    0.001    0.002
 qs_scf_print_scf_summary            11  7.9    0.000    0.002    0.000    0.002
 dbcsr_mm_hostdrv_init             2286 17.5    0.001    0.002    0.001    0.002
 dbcsr_get_conf_nstacks            2286 16.5    0.001    0.002    0.001    0.002
 topology_generate_bond_2             1  5.0    0.001    0.002    0.001    0.002
 update_motion                        1  6.0    0.000    0.000    0.000    0.002
 update_motion_AVERAGES               1  7.0    0.000    0.001    0.000    0.001
 add_external_potential              11  3.9    0.000    0.001    0.000    0.001
 qs_scf_post_xray                    11  6.9    0.000    0.001    0.000    0.001
 topology_connectivity_pack_14        1  4.0    0.000    0.001    0.000    0.001
 section_coord_val_set                1  7.0    0.001    0.001    0.001    0.001
 qs_scf_ensure_mos                   11  5.9    0.000    0.001    0.001    0.001
 init_cube_info                       4  6.0    0.001    0.001    0.001    0.001
 pw_poisson_rebuild                 119 11.3    0.001    0.001    0.001    0.001
 metadyn_read                         1  2.0    0.000    0.001    0.000    0.001
 dbcsr_verify_matrix                 22  9.9    0.001    0.001    0.001    0.001
 atom2d_build                        11  7.9    0.000    0.001    0.000    0.001
 compute_averages                    10  5.0    0.000    0.001    0.000    0.001
 topology_generate_bond_4             1  5.0    0.000    0.001    0.001    0.001
 pw_create                          382 12.9    0.001    0.001    0.001    0.001
 qs_efield_local_operator           119 10.3    0.000    0.001    0.000    0.001
 write_mo_dependent_results          11  7.9    0.000    0.001    0.000    0.001
 calculate_atom_vxc_lda              12 11.0    0.001    0.001    0.001    0.001
 cp_fm_scale_and_add                 24  9.0    0.001    0.001    0.001    0.001
 topology_connectivity_pack_12        1  4.0    0.000    0.001    0.000    0.001
 dump_info_core_hamiltonian          22  6.9    0.000    0.001    0.000    0.001
 qs_efield_berry_phase              119 10.3    0.001    0.001    0.001    0.001
 create_destination_list             22 11.9    0.000    0.001    0.000    0.001
 qs_scf_post_charges                 11  6.9    0.000    0.000    0.000    0.000
 create_local_fixd_list              11  4.9    0.000    0.000    0.000    0.000
 topology_generate_molecule_PAR       1  5.0    0.000    0.000    0.000    0.000
 balance_global_list                 22 12.9    0.000    0.000    0.000    0.000
 external_c_potential                22  5.9    0.000    0.000    0.000    0.000
 topology_coordinate_pack_1           1  4.0    0.000    0.000    0.000    0.000
 fix_atom_control                    11  3.9    0.000    0.000    0.000    0.000
 qs_ks_did_change                   130  7.7    0.000    0.000    0.000    0.000
 topology_connectivity_pack_7         1  4.0    0.000    0.000    0.000    0.000
 rs_grid_create                      26  9.3    0.000    0.000    0.000    0.000
 topology_coordinate_pack_5           1  4.0    0.000    0.000    0.000    0.000
 wfn_mix                             11  6.9    0.000    0.000    0.000    0.000
 set_mo_occupation_1                120  9.4    0.000    0.000    0.000    0.000
 dbcsr_filter_anytype               163  9.7    0.000    0.000    0.000    0.000
 write_structure_data                12  4.8    0.000    0.000    0.000    0.000
 calculate_ecore_efield              22  5.9    0.000    0.000    0.000    0.000
 scf_c_read_parameters                1  3.0    0.000    0.000    0.000    0.000
 pw_poisson_set                       1  6.0    0.000    0.000    0.000    0.000
 qs_scf_post_elf                     11  6.9    0.000    0.000    0.000    0.000
 initialize_cascade                   1  4.0    0.000    0.000    0.000    0.000
 topology_connectivity_pack_1         1  4.0    0.000    0.000    0.000    0.000
 topology_constraint_pack_4           1  4.0    0.000    0.000    0.000    0.000
 connectivity_control_check_ele       1  4.0    0.000    0.000    0.000    0.000
 calculate_dispersion_pairpot        11  6.9    0.000    0.000    0.000    0.000
 allocate_qs_energy                   1  3.0    0.000    0.000    0.000    0.000
 read_topology_section                1  3.0    0.000    0.000    0.000    0.000
 qs_energies_properties              11  5.9    0.000    0.000    0.000    0.000
 topology_generate_bond_1             1  5.0    0.000    0.000    0.000    0.000
 make_basic_distribution              1  5.0    0.000    0.000    0.000    0.000
 update_motion_NPT                    1  7.0    0.000    0.000    0.000    0.000
 resp_fit                            11  7.9    0.000    0.000    0.000    0.000
 temperature_control                 10  3.0    0.000    0.000    0.000    0.000
 calculate_ecore_self                22  5.9    0.000    0.000    0.000    0.000
 -------------------------------------------------------------------------------

 The number of warnings for this run is : 1
 
 -------------------------------------------------------------------------------
  **** **** ******  **  PROGRAM ENDED AT                 2017-10-20 13:18:44.145
 ***** ** ***  *** **   PROGRAM RAN ON                                      b380
 **    ****   ******    PROGRAM RAN BY                                    ongari
 ***** **    ** ** **   PROGRAM PROCESS ID                                 22297
  **** **  *******  **  PROGRAM STOPPED IN /scratch/ongari/1_benchmark_official/
                                           cp2k/02_bellatrix_cp2k-3.0_stable-gcc
                                           /ncores_032
