 DBCSR| Multiplication driver                                               BLAS
 DBCSR| Multrec recursion limit                                              512
 DBCSR| Multiplication stack size                                           1000
 DBCSR| Maximum elements for images                                    UNLIMITED
 DBCSR| Multiplicative factor virtual images                                   1
 DBCSR| Randmat seed                                                    12341313
 DBCSR| Multiplication size stacks                                             3
 DBCSR| Number of 3D layers                                               SINGLE
 DBCSR| Use MPI memory allocation                                              T
 DBCSR| Use RMA algorithm                                                      F
 DBCSR| Use Communication thread                                               T
 DBCSR| Communication thread load                                             87


  **** **** ******  **  PROGRAM STARTED AT               2017-10-27 12:42:16.033
 ***** ** ***  *** **   PROGRAM STARTED ON                                  f356
 **    ****   ******    PROGRAM STARTED BY                                ongari
 ***** **    ** ** **   PROGRAM PROCESS ID                                 17895
  **** **  *******  **  PROGRAM STARTED IN /scratch/ongari/lsmo_benchmark/cp2k/0
                                           4_fidis_cp2k-4.1_intel-mpi-plumed/nco
                                           res_008

 CP2K| version string:                                          CP2K version 4.1
 CP2K| source code revision number:                                    svn:17462
 CP2K| cp2kflags: libint fftw3 pexsi elpa3 parallel mpi3 scalapack libderiv_max_
 CP2K|            am1=5 libint_max_am=6 plumed2
 CP2K| is freely available from                            https://www.cp2k.org/
 CP2K| Program compiled at                          Thu Jul 6 13:25:30 CEST 2017
 CP2K| Program compiled on                                                  f407
 CP2K| Program compiled for                  linux-rhel7-x86_E5v4_Mellanox-intel
 CP2K| Data directory path    /dev/shm/scitasbuild/spack-stage/spack-stage-ltFTp
 CP2K| Input file name                                                H2O-64.inp
 
 GLOBAL| Force Environment number                                              1
 GLOBAL| Basis set file name                                      GTH_BASIS_SETS
 GLOBAL| Potential file name                                           POTENTIAL
 GLOBAL| MM Potential file name                                     MM_POTENTIAL
 GLOBAL| Coordinate file name                                      __STD_INPUT__
 GLOBAL| Method name                                                        CP2K
 GLOBAL| Project name                                                     H2O-64
 GLOBAL| Preferred FFT library                                             FFTW3
 GLOBAL| Preferred diagonalization lib.                                       SL
 GLOBAL| Run type                                                             MD
 GLOBAL| All-to-all communication in single precision                          F
 GLOBAL| FFTs using library dependent lengths                                  F
 GLOBAL| Global print level                                                  LOW
 GLOBAL| Total number of message passing processes                             8
 GLOBAL| Number of threads for this process                                    1
 GLOBAL| This output is from process                                           0
 GLOBAL| CPU model name :  Intel(R) Xeon(R) CPU E5-2690 v4 @ 2.60GHz

 MEMORY| system memory details [Kb]
 MEMORY|                        rank 0           min           max       average
 MEMORY| MemTotal            131627604     131627604     131627604     131627604
 MEMORY| MemFree             124998644     124998644     124998644     124998644
 MEMORY| Buffers                  5320          5320          5320          5320
 MEMORY| Cached                 139316        139316        139316        139316
 MEMORY| Slab                   287212        287212        287212        287212
 MEMORY| SReclaimable            83668         83668         83668         83668
 MEMORY| MemLikelyFree       125226948     125226948     125226948     125226948

 
 GENERATE|  Preliminary Number of Bonds generated:                             0
 GENERATE|  Achieved consistency in connectivity generation.

 *******************************************************************************
 *******************************************************************************
 **                                                                           **
 **     #####                         ##              ##                      **
 **    ##   ##            ##          ##              ##                      **
 **   ##     ##                       ##            ######                    **
 **   ##     ##  ##   ##  ##   #####  ##  ##   ####   ##    #####    #####    **
 **   ##     ##  ##   ##  ##  ##      ## ##   ##      ##   ##   ##  ##   ##   **
 **   ##  ## ##  ##   ##  ##  ##      ####     ###    ##   ######   ######    **
 **    ##  ###   ##   ##  ##  ##      ## ##      ##   ##   ##       ##        **
 **     #######   #####   ##   #####  ##  ##  ####    ##    #####   ##        **
 **           ##                                                    ##        **
 **                                                                           **
 **                                                ... make the atoms dance   **
 **                                                                           **
 **            Copyright (C) by CP2K developers group (2000 - 2016)           **
 **                                                                           **
 *******************************************************************************


 SCF PARAMETERS         Density guess:                                    ATOMIC
                        --------------------------------------------------------
                        max_scf:                                              50
                        max_scf_history:                                       0
                        max_diis:                                              4
                        --------------------------------------------------------
                        eps_scf:                                        1.00E-05
                        eps_scf_history:                                0.00E+00
                        eps_diis:                                       1.00E-01
                        eps_eigval:                                     1.00E-05
                        --------------------------------------------------------
                        level_shift [a.u.]:                                 0.00
                        --------------------------------------------------------
                        No outer SCF
 
 MD| Molecular Dynamics Protocol 
 MD| Ensemble Type                                                           NVE
 MD| Number of Time Steps                                                     10
 MD| Time Step [fs]                                                         0.50
 MD| Temperature [K]                                                      300.00
 MD| Temperature tolerance [K]                                              0.00
 MD| Print MD information every                                        1 step(s)
 MD| File type     Print frequency[steps]                             File names
 MD| Coordinates            1                                   H2O-64-pos-1.xyz
 MD| Velocities             1                                   H2O-64-vel-1.xyz
 MD| Energies               1                                      H2O-64-1.ener
 MD| Dump                  20                                   H2O-64-1.restart
 
 ROT| Rotational Analysis Info 
 ROT| Principal axes and moments of inertia in atomic units:
 ROT|                                1                 2                 3
 ROT| EIGENVALUES            0.174175353E+09   0.187507692E+09   0.199545123E+09
 ROT|      X                    -0.734964520       0.242599134       0.633224142
 ROT|      Y                    -0.044883650       0.914361712      -0.402402930
 ROT|      Z                    -0.676618513      -0.324173287      -0.661134682
 ROT| Numer of Rotovibrational vectors:     6

 Calculation of degrees of freedom
                                                      Number of atoms:       192
                                 Number of Intramolecular constraints:         0
                                 Number of Intermolecular constraints:         0
                                  Invariants(translation + rotations):         3
                                                   Degrees of freedom:       573


 Restraints Information
                                  Number of Intramolecular restraints:         0
                                  Number of Intermolecular restraints:         0
 ************************** Velocities initialization **************************
 Initial Temperature                                                    300.00 K
 COM velocity:           -0.000000000000     -0.000000000000     -0.000000000000
 *******************************************************************************


 Number of electrons:                                                        512
 Number of occupied orbitals:                                                256
 Number of molecular orbitals:                                               256

 Number of orbital functions:                                               2560
 Number of independent orbital functions:                                   2560

 Extrapolation method: initial_guess


 SCF WAVEFUNCTION OPTIMIZATION

  ----------------------------------- OT ---------------------------------------
  Minimizer      : DIIS                : direct inversion
                                         in the iterative subspace
                                         using   7 DIIS vectors
                                         safer DIIS on
  Preconditioner : FULL_KINETIC        : inversion of T + eS
  Precond_solver : DEFAULT
  stepsize       :    0.15000000                  energy_gap     :    0.20000000
  eps_taylor     :   0.10000E-15                  max_taylor     :             4
  ----------------------------------- OT ---------------------------------------

  Step     Update method      Time    Convergence         Total energy    Change
  ------------------------------------------------------------------------------
     1 OT DIIS     0.15E+00    1.4     0.01332027     -1059.3825079557 -1.06E+03
     2 OT DIIS     0.15E+00    1.5     0.00868183     -1073.0837973670 -1.37E+01
     3 OT DIIS     0.15E+00    1.5     0.00608177     -1082.3329449393 -9.25E+00
     4 OT DIIS     0.15E+00    1.5     0.00420419     -1088.9991944739 -6.67E+00
     5 OT DIIS     0.15E+00    1.5     0.00319228     -1092.5975694249 -3.60E+00
     6 OT DIIS     0.15E+00    1.5     0.00242089     -1095.2728736089 -2.68E+00
     7 OT DIIS     0.15E+00    1.5     0.00180823     -1097.1827110187 -1.91E+00
     8 OT DIIS     0.15E+00    1.5     0.00136563     -1098.4047633189 -1.22E+00
     9 OT DIIS     0.15E+00    1.5     0.00107154     -1099.0957253931 -6.91E-01
    10 OT DIIS     0.15E+00    1.5     0.00085958     -1099.5568478897 -4.61E-01
    11 OT DIIS     0.15E+00    1.5     0.00070902     -1099.8674344588 -3.11E-01
    12 OT DIIS     0.15E+00    1.5     0.00059349     -1100.0778291172 -2.10E-01
    13 OT DIIS     0.15E+00    1.5     0.00050949     -1100.2324062136 -1.55E-01
    14 OT DIIS     0.15E+00    1.5     0.00044833     -1100.3361495732 -1.04E-01
    15 OT DIIS     0.15E+00    1.5     0.00039690     -1100.4341573205 -9.80E-02
    16 OT DIIS     0.15E+00    1.5     0.00035862     -1100.5038829257 -6.97E-02
    17 OT DIIS     0.15E+00    1.5     0.00034534     -1100.5572959989 -5.34E-02
    18 OT DIIS     0.15E+00    1.5     0.00034139     -1100.5793052943 -2.20E-02
    19 OT DIIS     0.15E+00    1.5     0.00033463     -1100.5947747725 -1.55E-02
    20 OT SD       0.15E+00    1.5     0.00033658     -1100.6056260666 -1.09E-02
    21 OT DIIS     0.15E+00    1.5     0.00033500     -1100.6167319763 -1.11E-02
    22 OT DIIS     0.15E+00    1.5     0.00032752     -1100.6181772877 -1.45E-03
    23 OT DIIS     0.15E+00    1.5     0.00032184     -1100.6243788064 -6.20E-03
    24 OT DIIS     0.15E+00    1.5     0.00030944     -1100.6371111614 -1.27E-02
    25 OT SD       0.15E+00    1.5     0.00030022     -1100.6455945048 -8.48E-03
    26 OT DIIS     0.15E+00    1.5     0.00029911     -1100.6544335251 -8.84E-03
    27 OT DIIS     0.15E+00    1.5     0.00028894     -1100.6591662825 -4.73E-03
    28 OT SD       0.15E+00    1.5     0.00028473     -1100.6665469324 -7.38E-03
    29 OT SD       0.15E+00    1.5     0.00028442     -1100.6745080801 -7.96E-03
    30 OT SD       0.15E+00    1.5     0.00028480     -1100.6824637367 -7.96E-03
    31 OT SD       0.15E+00    1.5     0.00028544     -1100.6904451527 -7.98E-03
    32 OT DIIS     0.15E+00    1.5     0.00028617     -1100.6984643086 -8.02E-03
    33 OT SD       0.15E+00    1.5     0.00033212     -1100.7435639636 -4.51E-02
    34 OT SD       0.15E+00    1.5     0.00031463     -1100.7540641968 -1.05E-02
    35 OT SD       0.15E+00    1.5     0.00030588     -1100.7636402128 -9.58E-03
    36 OT SD       0.15E+00    1.5     0.00030057     -1100.7727489685 -9.11E-03
    37 OT SD       0.15E+00    1.5     0.00029679     -1100.7815697671 -8.82E-03
    38 OT SD       0.15E+00    1.5     0.00029367     -1100.7901809979 -8.61E-03
    39 OT DIIS     0.15E+00    1.5     0.00029082     -1100.7986166935 -8.44E-03
    40 OT SD       0.15E+00    1.5     0.00016832     -1100.9875398773 -1.89E-01
    41 OT DIIS     0.15E+00    1.5     0.00014749     -1100.9901042395 -2.56E-03
    42 OT DIIS     0.15E+00    1.5     0.00023359     -1100.9860270240  4.08E-03
    43 OT DIIS     0.15E+00    1.5     0.00017591     -1100.9988969376 -1.29E-02
    44 OT DIIS     0.15E+00    1.5     0.00022226     -1101.0010831348 -2.19E-03
    45 OT DIIS     0.15E+00    1.5     0.00015342     -1101.0160500111 -1.50E-02
    46 OT DIIS     0.15E+00    1.5     0.00005874     -1101.0255699554 -9.52E-03
    47 OT DIIS     0.15E+00    1.5     0.00007360     -1101.0255460655  2.39E-05
    48 OT DIIS     0.15E+00    1.5     0.00005773     -1101.0267774770 -1.23E-03
    49 OT DIIS     0.15E+00    1.5     0.00005383     -1101.0275719804 -7.95E-04
    50 OT DIIS     0.15E+00    1.5     0.00004287     -1101.0287889093 -1.22E-03

  Leaving inner SCF loop after reaching    50 steps.


  Electronic density on regular grids:       -512.0000015470       -0.0000015470
  Core density on regular grids:              512.0000000045        0.0000000045
  Total charge density on r-space grids:       -0.0000015426
  Total charge density g-space grids:          -0.0000015426

  Overlap energy of the core charge distribution:               0.00000562599749
  Self energy of the core charge distribution:              -2805.30499493854950
  Core Hamiltonian energy:                                    825.29378519649322
  Hartree energy:                                            1145.26167274276895
  Exchange-correlation energy:                               -266.27925753605740

  Total energy:                                             -1101.02878890934744

 *** WARNING in qs_scf.F:467 :: SCF run NOT converged ***


 ENERGY| Total FORCE_EVAL ( QS ) energy (a.u.):            -1101.031006970486033

 
 MD_ENERGIES| Initialization proceeding
 

 ******************************** GO CP2K GO! **********************************
 INITIAL POTENTIAL ENERGY[hartree]     =                     -0.110103100697E+04
 INITIAL KINETIC ENERGY[hartree]       =                      0.272187778755E+00
 INITIAL TEMPERATURE[K]                =                                 300.000
 INITIAL VOLUME[bohr^3]                =                      0.129095421321E+05
 INITIAL CELL LNTHS[bohr]   =      0.2345868E+02   0.2345868E+02   0.2345868E+02
 INITIAL CELL ANGLS[deg]    =      0.9000000E+02   0.9000000E+02   0.9000000E+02
 ******************************** GO CP2K GO! **********************************

 Number of electrons:                                                        512
 Number of occupied orbitals:                                                256
 Number of molecular orbitals:                                               256

 Number of orbital functions:                                               2560
 Number of independent orbital functions:                                   2560

 Extrapolation method: PS Nth order


 SCF WAVEFUNCTION OPTIMIZATION

  ----------------------------------- OT ---------------------------------------
  Minimizer      : DIIS                : direct inversion
                                         in the iterative subspace
                                         using   7 DIIS vectors
                                         safer DIIS on
  Preconditioner : FULL_KINETIC        : inversion of T + eS
  Precond_solver : DEFAULT
  stepsize       :    0.15000000                  energy_gap     :    0.20000000
  eps_taylor     :   0.10000E-15                  max_taylor     :             4
  ----------------------------------- OT ---------------------------------------

  Step     Update method      Time    Convergence         Total energy    Change
  ------------------------------------------------------------------------------
     1 OT DIIS     0.15E+00    1.3     0.00024949     -1101.0278031973 -1.10E+03
     2 OT DIIS     0.15E+00    1.5     0.00016075     -1101.0327091507 -4.91E-03
     3 OT DIIS     0.15E+00    1.5     0.00009050     -1101.0362863174 -3.58E-03
     4 OT DIIS     0.15E+00    1.5     0.00006199     -1101.0377277257 -1.44E-03
     5 OT DIIS     0.15E+00    1.5     0.00003797     -1101.0386877894 -9.60E-04
     6 OT DIIS     0.15E+00    1.5     0.00002205     -1101.0391017619 -4.14E-04
     7 OT DIIS     0.15E+00    1.5     0.00001260     -1101.0392355450 -1.34E-04
     8 OT DIIS     0.15E+00    1.5     0.00000723     -1101.0392767826 -4.12E-05

  *** SCF run converged in     8 steps ***


  Electronic density on regular grids:       -512.0000014905       -0.0000014905
  Core density on regular grids:              511.9999999975       -0.0000000025
  Total charge density on r-space grids:       -0.0000014931
  Total charge density g-space grids:          -0.0000014931

  Overlap energy of the core charge distribution:               0.00000554074590
  Self energy of the core charge distribution:              -2805.30499493854950
  Core Hamiltonian energy:                                    824.99709670363086
  Hartree energy:                                            1145.47089243724076
  Exchange-correlation energy:                               -266.20227652567797

  Total energy:                                             -1101.03927678260993

 ENERGY| Total FORCE_EVAL ( QS ) energy (a.u.):            -1101.039289563984767


 *******************************************************************************
 ENSEMBLE TYPE                =                                              NVE
 STEP NUMBER                  =                                                1
 TIME [fs]                    =                                         0.500000
 CONSERVED QUANTITY [hartree] =                              -0.110076554067E+04

                                              INSTANTANEOUS             AVERAGES
 CPU TIME [s]                 =                       92.97                92.97
 ENERGY DRIFT PER ATOM [K]    =         -0.110545479910E+02   0.000000000000E+00
 POTENTIAL ENERGY[hartree]    =         -0.110103928956E+04  -0.110103928956E+04
 KINETIC ENERGY [hartree]     =          0.273748891514E+00   0.273748891514E+00
 TEMPERATURE [K]              =                     301.721              301.721
 *******************************************************************************


 Number of electrons:                                                        512
 Number of occupied orbitals:                                                256
 Number of molecular orbitals:                                               256

 Number of orbital functions:                                               2560
 Number of independent orbital functions:                                   2560

 Extrapolation method: PS Nth order


 SCF WAVEFUNCTION OPTIMIZATION

  ----------------------------------- OT ---------------------------------------
  Minimizer      : DIIS                : direct inversion
                                         in the iterative subspace
                                         using   7 DIIS vectors
                                         safer DIIS on
  Preconditioner : FULL_KINETIC        : inversion of T + eS
  Precond_solver : DEFAULT
  stepsize       :    0.15000000                  energy_gap     :    0.20000000
  eps_taylor     :   0.10000E-15                  max_taylor     :             4
  ----------------------------------- OT ---------------------------------------

  Step     Update method      Time    Convergence         Total energy    Change
  ------------------------------------------------------------------------------
     1 OT DIIS     0.15E+00    1.3     0.00018187     -1101.0453213820 -1.10E+03
     2 OT DIIS     0.15E+00    1.5     0.00012503     -1101.0480054190 -2.68E-03
     3 OT DIIS     0.15E+00    1.5     0.00007517     -1101.0503828144 -2.38E-03
     4 OT DIIS     0.15E+00    1.5     0.00005150     -1101.0514777105 -1.09E-03
     5 OT DIIS     0.15E+00    1.5     0.00002882     -1101.0522243706 -7.47E-04
     6 OT DIIS     0.15E+00    1.5     0.00001712     -1101.0524515284 -2.27E-04
     7 OT DIIS     0.15E+00    1.5     0.00000972     -1101.0525297372 -7.82E-05

  *** SCF run converged in     7 steps ***


  Electronic density on regular grids:       -512.0000014194       -0.0000014194
  Core density on regular grids:              511.9999999954       -0.0000000046
  Total charge density on r-space grids:       -0.0000014240
  Total charge density g-space grids:          -0.0000014240

  Overlap energy of the core charge distribution:               0.00000508717620
  Self energy of the core charge distribution:              -2805.30499493854950
  Core Hamiltonian energy:                                    823.99099498801297
  Hartree energy:                                            1146.19319011613652
  Exchange-correlation energy:                               -265.93172499001474

  Total energy:                                             -1101.05252973723850

 ENERGY| Total FORCE_EVAL ( QS ) energy (a.u.):            -1101.052553905903551


 *******************************************************************************
 ENSEMBLE TYPE                =                                              NVE
 STEP NUMBER                  =                                                2
 TIME [fs]                    =                                         1.000000
 CONSERVED QUANTITY [hartree] =                              -0.110076574941E+04

                                              INSTANTANEOUS             AVERAGES
 CPU TIME [s]                 =                       13.02                53.00
 ENERGY DRIFT PER ATOM [K]    =         -0.113978552366E+02  -0.569892761830E+01
 POTENTIAL ENERGY[hartree]    =         -0.110105255391E+04  -0.110104592173E+04
 KINETIC ENERGY [hartree]     =          0.286804492827E+00   0.280276692170E+00
 TEMPERATURE [K]              =                     316.110              308.915
 *******************************************************************************


 Number of electrons:                                                        512
 Number of occupied orbitals:                                                256
 Number of molecular orbitals:                                               256

 Number of orbital functions:                                               2560
 Number of independent orbital functions:                                   2560

 Extrapolation method: PS Nth order


 SCF WAVEFUNCTION OPTIMIZATION

  ----------------------------------- OT ---------------------------------------
  Minimizer      : DIIS                : direct inversion
                                         in the iterative subspace
                                         using   7 DIIS vectors
                                         safer DIIS on
  Preconditioner : FULL_KINETIC        : inversion of T + eS
  Precond_solver : DEFAULT
  stepsize       :    0.15000000                  energy_gap     :    0.20000000
  eps_taylor     :   0.10000E-15                  max_taylor     :             4
  ----------------------------------- OT ---------------------------------------

  Step     Update method      Time    Convergence         Total energy    Change
  ------------------------------------------------------------------------------
     1 OT DIIS     0.15E+00    1.3     0.00016599     -1101.0673401807 -1.10E+03
     2 OT DIIS     0.15E+00    1.5     0.00011755     -1101.0696106473 -2.27E-03
     3 OT DIIS     0.15E+00    1.5     0.00007010     -1101.0718403937 -2.23E-03
     4 OT DIIS     0.15E+00    1.5     0.00004686     -1101.0728159792 -9.76E-04
     5 OT DIIS     0.15E+00    1.5     0.00002506     -1101.0734352745 -6.19E-04
     6 OT DIIS     0.15E+00    1.5     0.00001526     -1101.0735929641 -1.58E-04
     7 OT DIIS     0.15E+00    1.5     0.00000857     -1101.0736544803 -6.15E-05

  *** SCF run converged in     7 steps ***


  Electronic density on regular grids:       -512.0000013333       -0.0000013333
  Core density on regular grids:              511.9999999979       -0.0000000021
  Total charge density on r-space grids:       -0.0000013354
  Total charge density g-space grids:          -0.0000013354

  Overlap energy of the core charge distribution:               0.00000421676059
  Self energy of the core charge distribution:              -2805.30499493854950
  Core Hamiltonian energy:                                    822.43891721572277
  Hartree energy:                                            1147.30180931060067
  Exchange-correlation energy:                               -265.50939028485425

  Total energy:                                             -1101.07365448031942

 ENERGY| Total FORCE_EVAL ( QS ) energy (a.u.):            -1101.073673404313013


 *******************************************************************************
 ENSEMBLE TYPE                =                                              NVE
 STEP NUMBER                  =                                                3
 TIME [fs]                    =                                         1.500000
 CONSERVED QUANTITY [hartree] =                              -0.110076623801E+04

                                              INSTANTANEOUS             AVERAGES
 CPU TIME [s]                 =                       13.09                39.69
 ENERGY DRIFT PER ATOM [K]    =         -0.122014238425E+02  -0.786642635969E+01
 POTENTIAL ENERGY[hartree]    =         -0.110107367340E+04  -0.110105517229E+04
 KINETIC ENERGY [hartree]     =          0.307435398586E+00   0.289329594309E+00
 TEMPERATURE [K]              =                     338.849              318.893
 *******************************************************************************


 Number of electrons:                                                        512
 Number of occupied orbitals:                                                256
 Number of molecular orbitals:                                               256

 Number of orbital functions:                                               2560
 Number of independent orbital functions:                                   2560

 Extrapolation method: PS Nth order


 SCF WAVEFUNCTION OPTIMIZATION

  ----------------------------------- OT ---------------------------------------
  Minimizer      : DIIS                : direct inversion
                                         in the iterative subspace
                                         using   7 DIIS vectors
                                         safer DIIS on
  Preconditioner : FULL_KINETIC        : inversion of T + eS
  Precond_solver : DEFAULT
  stepsize       :    0.15000000                  energy_gap     :    0.20000000
  eps_taylor     :   0.10000E-15                  max_taylor     :             4
  ----------------------------------- OT ---------------------------------------

  Step     Update method      Time    Convergence         Total energy    Change
  ------------------------------------------------------------------------------
     1 OT DIIS     0.15E+00    1.3     0.00016900     -1101.0882815790 -1.10E+03
     2 OT DIIS     0.15E+00    1.5     0.00012004     -1101.0906392118 -2.36E-03
     3 OT DIIS     0.15E+00    1.5     0.00006991     -1101.0929761670 -2.34E-03
     4 OT DIIS     0.15E+00    1.5     0.00004370     -1101.0939498196 -9.74E-04
     5 OT DIIS     0.15E+00    1.5     0.00002172     -1101.0944515377 -5.02E-04
     6 OT DIIS     0.15E+00    1.5     0.00001364     -1101.0945537971 -1.02E-04
     7 OT DIIS     0.15E+00    1.5     0.00000750     -1101.0946004838 -4.67E-05

  *** SCF run converged in     7 steps ***


  Electronic density on regular grids:       -512.0000012177       -0.0000012177
  Core density on regular grids:              512.0000000002        0.0000000002
  Total charge density on r-space grids:       -0.0000012176
  Total charge density g-space grids:          -0.0000012176

  Overlap energy of the core charge distribution:               0.00000308048338
  Self energy of the core charge distribution:              -2805.30499493854950
  Core Hamiltonian energy:                                    820.48664268916161
  Hartree energy:                                            1148.70443612234749
  Exchange-correlation energy:                               -264.98068743720415

  Total energy:                                             -1101.09460048376081

 ENERGY| Total FORCE_EVAL ( QS ) energy (a.u.):            -1101.094614859847752


 *******************************************************************************
 ENSEMBLE TYPE                =                                              NVE
 STEP NUMBER                  =                                                4
 TIME [fs]                    =                                         2.000000
 CONSERVED QUANTITY [hartree] =                              -0.110076681835E+04

                                              INSTANTANEOUS             AVERAGES
 CPU TIME [s]                 =                       13.16                33.06
 ENERGY DRIFT PER ATOM [K]    =         -0.131558945426E+02  -0.918879340542E+01
 POTENTIAL ENERGY[hartree]    =         -0.110109461486E+04  -0.110106503293E+04
 KINETIC ENERGY [hartree]     =          0.327796508688E+00   0.298946322904E+00
 TEMPERATURE [K]              =                     361.291              329.493
 *******************************************************************************


 Number of electrons:                                                        512
 Number of occupied orbitals:                                                256
 Number of molecular orbitals:                                               256

 Number of orbital functions:                                               2560
 Number of independent orbital functions:                                   2560

 Extrapolation method: PS Nth order


 SCF WAVEFUNCTION OPTIMIZATION

  ----------------------------------- OT ---------------------------------------
  Minimizer      : DIIS                : direct inversion
                                         in the iterative subspace
                                         using   7 DIIS vectors
                                         safer DIIS on
  Preconditioner : FULL_KINETIC        : inversion of T + eS
  Precond_solver : DEFAULT
  stepsize       :    0.15000000                  energy_gap     :    0.20000000
  eps_taylor     :   0.10000E-15                  max_taylor     :             4
  ----------------------------------- OT ---------------------------------------

  Step     Update method      Time    Convergence         Total energy    Change
  ------------------------------------------------------------------------------
     1 OT DIIS     0.15E+00    1.3     0.00006426     -1101.1044110236 -1.10E+03
     2 OT DIIS     0.15E+00    1.5     0.00005315     -1101.1047787984 -3.68E-04
     3 OT DIIS     0.15E+00    1.5     0.00003232     -1101.1054483798 -6.70E-04
     4 OT DIIS     0.15E+00    1.5     0.00002194     -1101.1057147872 -2.66E-04
     5 OT DIIS     0.15E+00    1.5     0.00001212     -1101.1058730945 -1.58E-04
     6 OT DIIS     0.15E+00    1.5     0.00000783     -1101.1059135973 -4.05E-05

  *** SCF run converged in     6 steps ***


  Electronic density on regular grids:       -512.0000010688       -0.0000010688
  Core density on regular grids:              511.9999999989       -0.0000000011
  Total charge density on r-space grids:       -0.0000010699
  Total charge density g-space grids:          -0.0000010699

  Overlap energy of the core charge distribution:               0.00000200945111
  Self energy of the core charge distribution:              -2805.30499493854950
  Core Hamiltonian energy:                                    818.39013739168990
  Hartree energy:                                            1150.21806252095143
  Exchange-correlation energy:                               -264.40912058080431

  Total energy:                                             -1101.10591359726118

 ENERGY| Total FORCE_EVAL ( QS ) energy (a.u.):            -1101.105932128854874


 *******************************************************************************
 ENSEMBLE TYPE                =                                              NVE
 STEP NUMBER                  =                                                5
 TIME [fs]                    =                                         2.500000
 CONSERVED QUANTITY [hartree] =                              -0.110076715532E+04

                                              INSTANTANEOUS             AVERAGES
 CPU TIME [s]                 =                       11.68                28.78
 ENERGY DRIFT PER ATOM [K]    =         -0.137100854628E+02  -0.100930518169E+02
 POTENTIAL ENERGY[hartree]    =         -0.110110593213E+04  -0.110107321277E+04
 KINETIC ENERGY [hartree]     =          0.338776813796E+00   0.306912421082E+00
 TEMPERATURE [K]              =                     373.393              338.273
 *******************************************************************************


 Number of electrons:                                                        512
 Number of occupied orbitals:                                                256
 Number of molecular orbitals:                                               256

 Number of orbital functions:                                               2560
 Number of independent orbital functions:                                   2560

 Extrapolation method: PS Nth order


 SCF WAVEFUNCTION OPTIMIZATION

  ----------------------------------- OT ---------------------------------------
  Minimizer      : DIIS                : direct inversion
                                         in the iterative subspace
                                         using   7 DIIS vectors
                                         safer DIIS on
  Preconditioner : FULL_KINETIC        : inversion of T + eS
  Precond_solver : DEFAULT
  stepsize       :    0.15000000                  energy_gap     :    0.20000000
  eps_taylor     :   0.10000E-15                  max_taylor     :             4
  ----------------------------------- OT ---------------------------------------

  Step     Update method      Time    Convergence         Total energy    Change
  ------------------------------------------------------------------------------
     1 OT DIIS     0.15E+00    1.3     0.00004706     -1101.1011339815 -1.10E+03
     2 OT DIIS     0.15E+00    1.5     0.00003814     -1101.1013293809 -1.95E-04
     3 OT DIIS     0.15E+00    1.5     0.00002079     -1101.1016568934 -3.28E-04
     4 OT DIIS     0.15E+00    1.5     0.00001223     -1101.1017643462 -1.07E-04
     5 OT DIIS     0.15E+00    1.5     0.00000730     -1101.1018023382 -3.80E-05

  *** SCF run converged in     5 steps ***


  Electronic density on regular grids:       -512.0000009008       -0.0000009008
  Core density on regular grids:              511.9999999941       -0.0000000059
  Total charge density on r-space grids:       -0.0000009067
  Total charge density g-space grids:          -0.0000009067

  Overlap energy of the core charge distribution:               0.00000123724779
  Self energy of the core charge distribution:              -2805.30499493854950
  Core Hamiltonian energy:                                    816.35636953440348
  Hartree energy:                                            1151.70037309182749
  Exchange-correlation energy:                               -263.85355126309497

  Total energy:                                             -1101.10180233816550

 ENERGY| Total FORCE_EVAL ( QS ) energy (a.u.):            -1101.101815178019478


 *******************************************************************************
 ENSEMBLE TYPE                =                                              NVE
 STEP NUMBER                  =                                                6
 TIME [fs]                    =                                         3.000000
 CONSERVED QUANTITY [hartree] =                              -0.110076702437E+04

                                              INSTANTANEOUS             AVERAGES
 CPU TIME [s]                 =                       10.21                25.69
 ENERGY DRIFT PER ATOM [K]    =         -0.134947246315E+02  -0.106599972860E+02
 POTENTIAL ENERGY[hartree]    =         -0.110110181518E+04  -0.110107797984E+04
 KINETIC ENERGY [hartree]     =          0.334790808494E+00   0.311558818984E+00
 TEMPERATURE [K]              =                     369.000              343.394
 *******************************************************************************


 Number of electrons:                                                        512
 Number of occupied orbitals:                                                256
 Number of molecular orbitals:                                               256

 Number of orbital functions:                                               2560
 Number of independent orbital functions:                                   2560

 Extrapolation method: PS Nth order


 SCF WAVEFUNCTION OPTIMIZATION

  ----------------------------------- OT ---------------------------------------
  Minimizer      : DIIS                : direct inversion
                                         in the iterative subspace
                                         using   7 DIIS vectors
                                         safer DIIS on
  Preconditioner : FULL_KINETIC        : inversion of T + eS
  Precond_solver : DEFAULT
  stepsize       :    0.15000000                  energy_gap     :    0.20000000
  eps_taylor     :   0.10000E-15                  max_taylor     :             4
  ----------------------------------- OT ---------------------------------------

  Step     Update method      Time    Convergence         Total energy    Change
  ------------------------------------------------------------------------------
     1 OT DIIS     0.15E+00    1.3     0.00004011     -1101.0829342809 -1.10E+03
     2 OT DIIS     0.15E+00    1.5     0.00003295     -1101.0830775657 -1.43E-04
     3 OT DIIS     0.15E+00    1.5     0.00001490     -1101.0833518754 -2.74E-04
     4 OT DIIS     0.15E+00    1.5     0.00000897     -1101.0834071080 -5.52E-05

  *** SCF run converged in     4 steps ***


  Electronic density on regular grids:       -512.0000007415       -0.0000007415
  Core density on regular grids:              511.9999999906       -0.0000000094
  Total charge density on r-space grids:       -0.0000007508
  Total charge density g-space grids:          -0.0000007508

  Overlap energy of the core charge distribution:               0.00000077877949
  Self energy of the core charge distribution:              -2805.30499493854950
  Core Hamiltonian energy:                                    814.58618751195809
  Hartree energy:                                            1153.00177219571196
  Exchange-correlation energy:                               -263.36637265588320

  Total energy:                                             -1101.08340710798325

 ENERGY| Total FORCE_EVAL ( QS ) energy (a.u.):            -1101.083423184810044


 *******************************************************************************
 ENSEMBLE TYPE                =                                              NVE
 STEP NUMBER                  =                                                7
 TIME [fs]                    =                                         3.500000
 CONSERVED QUANTITY [hartree] =                              -0.110076647588E+04

                                              INSTANTANEOUS             AVERAGES
 CPU TIME [s]                 =                        8.73                23.27
 ENERGY DRIFT PER ATOM [K]    =         -0.125926400017E+02  -0.109360891025E+02
 POTENTIAL ENERGY[hartree]    =         -0.110108342318E+04  -0.110107875746E+04
 KINETIC ENERGY [hartree]     =          0.316947308490E+00   0.312328603199E+00
 TEMPERATURE [K]              =                     349.333              344.242
 *******************************************************************************


 Number of electrons:                                                        512
 Number of occupied orbitals:                                                256
 Number of molecular orbitals:                                               256

 Number of orbital functions:                                               2560
 Number of independent orbital functions:                                   2560

 Extrapolation method: PS Nth order


 SCF WAVEFUNCTION OPTIMIZATION

  ----------------------------------- OT ---------------------------------------
  Minimizer      : DIIS                : direct inversion
                                         in the iterative subspace
                                         using   7 DIIS vectors
                                         safer DIIS on
  Preconditioner : FULL_KINETIC        : inversion of T + eS
  Precond_solver : DEFAULT
  stepsize       :    0.15000000                  energy_gap     :    0.20000000
  eps_taylor     :   0.10000E-15                  max_taylor     :             4
  ----------------------------------- OT ---------------------------------------

  Step     Update method      Time    Convergence         Total energy    Change
  ------------------------------------------------------------------------------
     1 OT DIIS     0.15E+00    1.3     0.00003934     -1101.0575993375 -1.10E+03
     2 OT DIIS     0.15E+00    1.5     0.00003220     -1101.0577372339 -1.38E-04
     3 OT DIIS     0.15E+00    1.5     0.00001302     -1101.0580145434 -2.77E-04
     4 OT DIIS     0.15E+00    1.5     0.00000937     -1101.0580508352 -3.63E-05

  *** SCF run converged in     4 steps ***


  Electronic density on regular grids:       -512.0000006088       -0.0000006088
  Core density on regular grids:              511.9999999927       -0.0000000073
  Total charge density on r-space grids:       -0.0000006162
  Total charge density g-space grids:          -0.0000006162

  Overlap energy of the core charge distribution:               0.00000054143077
  Self energy of the core charge distribution:              -2805.30499493854950
  Core Hamiltonian energy:                                    813.21035139299318
  Hartree energy:                                            1154.02258427296192
  Exchange-correlation energy:                               -262.98599210403142

  Total energy:                                             -1101.05805083519499

 ENERGY| Total FORCE_EVAL ( QS ) energy (a.u.):            -1101.058072647106883


 *******************************************************************************
 ENSEMBLE TYPE                =                                              NVE
 STEP NUMBER                  =                                                8
 TIME [fs]                    =                                         4.000000
 CONSERVED QUANTITY [hartree] =                              -0.110076580471E+04

                                              INSTANTANEOUS             AVERAGES
 CPU TIME [s]                 =                        8.71                21.45
 ENERGY DRIFT PER ATOM [K]    =         -0.114888015572E+02  -0.110051781594E+02
 POTENTIAL ENERGY[hartree]    =         -0.110105807265E+04  -0.110107617186E+04
 KINETIC ENERGY [hartree]     =          0.292267936071E+00   0.309821019808E+00
 TEMPERATURE [K]              =                     322.132              341.479
 *******************************************************************************


 Number of electrons:                                                        512
 Number of occupied orbitals:                                                256
 Number of molecular orbitals:                                               256

 Number of orbital functions:                                               2560
 Number of independent orbital functions:                                   2560

 Extrapolation method: PS Nth order


 SCF WAVEFUNCTION OPTIMIZATION

  ----------------------------------- OT ---------------------------------------
  Minimizer      : DIIS                : direct inversion
                                         in the iterative subspace
                                         using   7 DIIS vectors
                                         safer DIIS on
  Preconditioner : FULL_KINETIC        : inversion of T + eS
  Precond_solver : DEFAULT
  stepsize       :    0.15000000                  energy_gap     :    0.20000000
  eps_taylor     :   0.10000E-15                  max_taylor     :             4
  ----------------------------------- OT ---------------------------------------

  Step     Update method      Time    Convergence         Total energy    Change
  ------------------------------------------------------------------------------
     1 OT DIIS     0.15E+00    1.3     0.00004063     -1101.0348904328 -1.10E+03
     2 OT DIIS     0.15E+00    1.5     0.00003307     -1101.0350368938 -1.46E-04
     3 OT DIIS     0.15E+00    1.5     0.00001525     -1101.0353096358 -2.73E-04
     4 OT DIIS     0.15E+00    1.5     0.00001093     -1101.0353590214 -4.94E-05
     5 OT DIIS     0.15E+00    1.5     0.00000786     -1101.0353880728 -2.91E-05

  *** SCF run converged in     5 steps ***


  Electronic density on regular grids:       -512.0000004818       -0.0000004818
  Core density on regular grids:              511.9999999968       -0.0000000032
  Total charge density on r-space grids:       -0.0000004851
  Total charge density g-space grids:          -0.0000004851

  Overlap energy of the core charge distribution:               0.00000043858940
  Self energy of the core charge distribution:              -2805.30499493854950
  Core Hamiltonian energy:                                    812.31303126917862
  Hartree energy:                                            1154.69416749627771
  Exchange-correlation energy:                               -262.73759233825757

  Total energy:                                             -1101.03538807276141

 ENERGY| Total FORCE_EVAL ( QS ) energy (a.u.):            -1101.035410333148775


 *******************************************************************************
 ENSEMBLE TYPE                =                                              NVE
 STEP NUMBER                  =                                                9
 TIME [fs]                    =                                         4.500000
 CONSERVED QUANTITY [hartree] =                              -0.110076529419E+04

                                              INSTANTANEOUS             AVERAGES
 CPU TIME [s]                 =                       10.20                20.20
 ENERGY DRIFT PER ATOM [K]    =         -0.106491655302E+02  -0.109656212006E+02
 POTENTIAL ENERGY[hartree]    =         -0.110103541033E+04  -0.110107164280E+04
 KINETIC ENERGY [hartree]     =          0.270116144786E+00   0.305409367028E+00
 TEMPERATURE [K]              =                     297.717              336.616
 *******************************************************************************


 Number of electrons:                                                        512
 Number of occupied orbitals:                                                256
 Number of molecular orbitals:                                               256

 Number of orbital functions:                                               2560
 Number of independent orbital functions:                                   2560

 Extrapolation method: PS Nth order


 SCF WAVEFUNCTION OPTIMIZATION

  ----------------------------------- OT ---------------------------------------
  Minimizer      : DIIS                : direct inversion
                                         in the iterative subspace
                                         using   7 DIIS vectors
                                         safer DIIS on
  Preconditioner : FULL_KINETIC        : inversion of T + eS
  Precond_solver : DEFAULT
  stepsize       :    0.15000000                  energy_gap     :    0.20000000
  eps_taylor     :   0.10000E-15                  max_taylor     :             4
  ----------------------------------- OT ---------------------------------------

  Step     Update method      Time    Convergence         Total energy    Change
  ------------------------------------------------------------------------------
     1 OT DIIS     0.15E+00    1.3     0.00004272     -1101.0227185823 -1.10E+03
     2 OT DIIS     0.15E+00    1.5     0.00003547     -1101.0228816341 -1.63E-04
     3 OT DIIS     0.15E+00    1.5     0.00001954     -1101.0231905787 -3.09E-04
     4 OT DIIS     0.15E+00    1.5     0.00001351     -1101.0232865832 -9.60E-05
     5 OT DIIS     0.15E+00    1.5     0.00000909     -1101.0233423692 -5.58E-05

  *** SCF run converged in     5 steps ***


  Electronic density on regular grids:       -512.0000003316       -0.0000003316
  Core density on regular grids:              511.9999999981       -0.0000000019
  Total charge density on r-space grids:       -0.0000003335
  Total charge density g-space grids:          -0.0000003335

  Overlap energy of the core charge distribution:               0.00000042270337
  Self energy of the core charge distribution:              -2805.30499493854950
  Core Hamiltonian energy:                                    811.91272338361171
  Hartree energy:                                            1154.99784951716219
  Exchange-correlation energy:                               -262.62892075411270

  Total energy:                                             -1101.02334236918477

 ENERGY| Total FORCE_EVAL ( QS ) energy (a.u.):            -1101.023374986882118


 *******************************************************************************
 ENSEMBLE TYPE                =                                              NVE
 STEP NUMBER                  =                                               10
 TIME [fs]                    =                                         5.000000
 CONSERVED QUANTITY [hartree] =                              -0.110076505584E+04

                                              INSTANTANEOUS             AVERAGES
 CPU TIME [s]                 =                       10.21                19.20
 ENERGY DRIFT PER ATOM [K]    =         -0.102571586123E+02  -0.108947749417E+02
 POTENTIAL ENERGY[hartree]    =         -0.110102337499E+04  -0.110106681602E+04
 KINETIC ENERGY [hartree]     =          0.258319149915E+00   0.300700345317E+00
 TEMPERATURE [K]              =                     284.714              331.426
 *******************************************************************************


 -------------------------------------------------------------------------------
 -                                                                             -
 -                                DBCSR STATISTICS                             -
 -                                                                             -
 -------------------------------------------------------------------------------
 COUNTER                                    TOTAL       BLAS       SMM       ACC
 flops    9 x   32 x   32               207618048     100.0%      0.0%      0.0%
 flops   22 x   32 x   32               253755392     100.0%      0.0%      0.0%
 flops  128 x   64 x   64             26877100032     100.0%      0.0%      0.0%
 flops    9 x    9 x   64             44168260608     100.0%      0.0%      0.0%
 flops   22 x    9 x   64             53835724800     100.0%      0.0%      0.0%
 flops    9 x   22 x   64             53885500416     100.0%      0.0%      0.0%
 flops   22 x   22 x   64             67007283200     100.0%      0.0%      0.0%
 flops  128 x   64 x  640            141264158720     100.0%      0.0%      0.0%
 flops 1280 x   64 x   64            173811957760     100.0%      0.0%      0.0%
 flops    9 x   32 x    9            185405884416     100.0%      0.0%      0.0%
 flops   22 x   32 x    9            227871249408     100.0%      0.0%      0.0%
 flops    9 x   32 x   22            227871249408     100.0%      0.0%      0.0%
 flops   22 x   32 x   22            279130931200     100.0%      0.0%      0.0%
 flops 1280 x   64 x  640            399297740800     100.0%      0.0%      0.0%
 flops total                         1.880888E+12     100.0%      0.0%      0.0%
 flops max/rank                    235.585836E+09     100.0%      0.0%      0.0%
 matmuls inhomo. stacks                         0       0.0%      0.0%      0.0%
 matmuls total                           90409156     100.0%      0.0%      0.0%
 number of processed stacks                194864     100.0%      0.0%      0.0%
 average stack size                                   464.0       0.0       0.0
 marketing flops                     2.107587E+12
 -------------------------------------------------------------------------------
 # multiplications                           2286
 max memory usage/rank             479.682560E+06
 # max total images/rank                        2
 # MPI messages exchanged                  164592
 # MPI messages filtered                        0
 MPI messages size (elements):
  total size                        12.130279E+09
  min size                           0.000000E+00
  max size                         819.200000E+03
  average size                      73.699086E+03
 MPI breakdown and total messages size (bytes):
             size <=      128                1188                        0
       128 < size <=     8192                   0                        0
      8192 < size <=    32768               63444               2076770304
     32768 < size <=   131072               19224               1259864064
    131072 < size <=  4194304               71280              31850496000
   4194304 < size <= 16777216                9456              61855174464
  16777216 < size                               0                        0
 -------------------------------------------------------------------------------
 Warning: using a non-square number of MPI ranks might lead to poor performance.
          used ranks: 8
          suggested : 9 16
 -------------------------------------------------------------------------------
 
 MEMORY| Estimated peak process memory [MiB]                                 458

 -------------------------------------------------------------------------------
 -                                                                             -
 -                         MESSAGE PASSING PERFORMANCE                         -
 -                                                                             -
 -------------------------------------------------------------------------------

 ROUTINE             CALLS  TOT TIME [s]  AVE VOLUME [Bytes]  PERFORMANCE [MB/s]
 MP_Group                5         0.000
 MP_Bcast             3580         0.006              52676.            31891.34
 MP_Allreduce        15066         3.423                298.                1.31
 MP_Sync                 4         0.001
 MP_Alltoall         10248         3.870            1238229.             3278.88
 MP_ISendRecv         4998         0.064             189067.            14679.26
 MP_Wait            118626         5.289
 MP_ISend            55752         0.230             272334.            66033.69
 MP_IRecv            55752         0.315             272540.            48305.14
 MP_Memory          137734         0.053
 -------------------------------------------------------------------------------


 -------------------------------------------------------------------------------
 -                                                                             -
 -                           R E F E R E N C E S                               -
 -                                                                             -
 -------------------------------------------------------------------------------
 
 CP2K version 4.1, the CP2K developers group (2016).
 CP2K is freely available from https://www.cp2k.org/ .

 Schuett, Ole; Messmer, Peter; Hutter, Juerg; VandeVondele, Joost. 
 Electronic Structure Calculations on Graphics Processing Units, John Wiley & Sons, Ltd, 173-190 (2016). 
 GPU-Accelerated Sparse Matrix-Matrix Multiplication for Linear Scaling Density Functional Theory.
 http://dx.doi.org/10.1002/9781118670712.ch8


 Borstnik, U; VandeVondele, J; Weber, V; Hutter, J. 
 PARALLEL COMPUTING, 40 (5-6), 47-58 (2014). 
 Sparse matrix multiplication: The distributed block-compressed sparse
 row library.
 http://dx.doi.org/10.1016/j.parco.2014.03.012


 Hutter, J; Iannuzzi, M; Schiffmann, F; VandeVondele, J. 
 WILEY INTERDISCIPLINARY REVIEWS-COMPUTATIONAL MOLECULAR SCIENCE, 4 (1), 15-25 (2014). 
 CP2K: atomistic simulations of condensed matter systems.
 http://dx.doi.org/10.1002/wcms.1159


 Krack, M. 
 THEORETICAL CHEMISTRY ACCOUNTS, 114 (1-3), 145-152 (2005). 
 Pseudopotentials for H to Kr optimized for gradient-corrected
 exchange-correlation functionals.
 http://dx.doi.org/10.1007/s00214-005-0655-y


 VandeVondele, J; Krack, M; Mohamed, F; Parrinello, M; Chassaing, T;
 Hutter, J. COMPUTER PHYSICS COMMUNICATIONS, 167 (2), 103-128 (2005). 
 QUICKSTEP: Fast and accurate density functional calculations using a
 mixed Gaussian and plane waves approach.
 http://dx.doi.org/10.1016/j.cpc.2004.12.014


 Frigo, M; Johnson, SG. 
 PROCEEDINGS OF THE IEEE, 93 (2), 216-231 (2005). 
 The design and implementation of FFTW3.
 http://dx.doi.org/10.1109/JPROC.2004.840301


 VandeVondele, J; Hutter, J. 
 JOURNAL OF CHEMICAL PHYSICS, 118 (10), 4365-4369 (2003). 
 An efficient orbital transformation method for electronic structure
 calculations.
 http://dx.doi.org/10.1063/1.1543154


 Hartwigsen, C; Goedecker, S; Hutter, J. 
 PHYSICAL REVIEW B, 58 (7), 3641-3662 (1998). 
 Relativistic separable dual-space Gaussian pseudopotentials from H to Rn.
 http://dx.doi.org/10.1103/PhysRevB.58.3641


 Lippert, G; Hutter, J; Parrinello, M. 
 MOLECULAR PHYSICS, 92 (3), 477-487 (1997). 
 A hybrid Gaussian and plane wave density functional scheme.
 http://dx.doi.org/10.1080/002689797170220


 Goedecker, S; Teter, M; Hutter, J. 
 PHYSICAL REVIEW B, 54 (3), 1703-1710 (1996). 
 Separable dual-space Gaussian pseudopotentials.
 http://dx.doi.org/10.1103/PhysRevB.54.1703


 -------------------------------------------------------------------------------
 -                                                                             -
 -                                T I M I N G                                  -
 -                                                                             -
 -------------------------------------------------------------------------------
 SUBROUTINE                       CALLS  ASD         SELF TIME        TOTAL TIME
                                MAXIMUM       AVERAGE  MAXIMUM  AVERAGE  MAXIMUM
 CP2K                                 1  1.0    0.101    0.215  192.576  192.577
 qs_mol_dyn_low                       1  2.0    0.006    0.007  191.998  192.005
 qs_forces                           11  3.9    0.002    0.002  191.938  191.938
 qs_energies                         11  4.9    0.001    0.002  177.858  177.862
 scf_env_do_scf                      11  5.9    0.001    0.002  164.909  164.910
 scf_env_do_scf_inner_loop          108  6.5    0.004    0.010  153.238  153.238
 velocity_verlet                     10  3.0    0.001    0.002  113.479  113.484
 rebuild_ks_matrix                  119  8.3    0.001    0.001   90.151   90.342
 qs_ks_build_kohn_sham_matrix       119  9.3    0.012    0.013   90.151   90.341
 qs_ks_update_qs_env                119  7.6    0.001    0.001   81.004   81.176
 sum_up_and_integrate               119 10.3    0.158    0.163   78.353   78.401
 integrate_v_rspace                 119 11.3   70.575   71.592   78.194   78.249
 qs_rho_update_rho                  119  7.7    0.001    0.001   65.564   65.579
 calculate_rho_elec                 119  8.7   56.038   56.510   65.563   65.578
 dbcsr_multiply_generic            2286 12.5    0.062    0.063   28.543   29.215
 multiply_cannon                   2286 13.5    0.144    0.158   21.647   22.302
 qs_scf_new_mos                     108  7.5    0.001    0.001   20.963   21.131
 qs_scf_loop_do_ot                  108  8.5    0.001    0.001   20.963   21.130
 ot_scf_mini                        108  9.5    0.005    0.005   18.648   18.802
 multiply_cannon_multrec           9144 14.5   15.340   16.168   15.351   16.178
 pw_transfer                       1439 11.6    0.054    0.069   11.918   12.615
 fft_wrap_pw1pw2                   1201 12.6    0.006    0.008   11.704   12.400
 init_scf_loop                       11  6.9    0.000    0.001   11.650   11.650
 fft_wrap_pw1pw2_140                487 13.2    0.585    0.598   10.410   11.028
 fft3d_ps                          1201 14.6    7.877    8.698    9.666   10.355
 ot_mini                            108 10.5    0.001    0.001    9.945   10.091
 qs_ks_update_qs_env_forces          11  4.9    0.000    0.000    9.341    9.359
 init_scf_run                        11  5.9    0.001    0.001    8.892    8.892
 scf_env_initial_rho_setup           11  6.9    0.001    0.001    8.891    8.892
 wfi_extrapolate                     11  7.9    0.001    0.002    8.055    8.056
 density_rs2pw                      119  9.7    0.002    0.003    7.554    7.845
 mp_waitall_1                    115506 16.1    5.372    6.241    5.372    6.241
 apply_preconditioner_dbcsr         119 12.6    0.000    0.000    5.060    5.700
 apply_single                       119 13.6    0.001    0.001    5.060    5.700
 ot_diis_step                       108 11.5    0.003    0.004    5.514    5.514
 make_m2s                          4572 13.5    0.054    0.057    5.073    5.396
 build_core_hamiltonian_matrix_      11  4.9    0.000    0.000    4.554    4.714
 qs_ot_get_derivative               108 11.5    0.001    0.002    4.423    4.574
 potential_pw2rs                    119 12.3    0.011    0.011    4.559    4.569
 make_images                       4572 14.5    0.436    0.442    4.095    4.330
 rs_distribute_matrix               249 10.9    0.961    1.029    3.194    3.726
 qs_energies_init_hamiltonians       11  5.9    0.001    0.002    3.641    3.641
 rs_pw_transfer                     974 11.9    0.006    0.007    3.247    3.553
 multiply_cannon_metrocomm1        9144 14.5    0.015    0.016    3.056    3.440
 build_core_ppl_forces               11  5.9    2.768    2.890    2.768    2.890
 prepare_preconditioner              11  7.9    0.000    0.000    2.716    2.733
 make_preconditioner                 11  8.9    0.000    0.000    2.716    2.733
 calculate_dm_sparse                119  9.5    0.001    0.001    2.570    2.614
 make_full_inverse_cholesky          11  9.9    0.000    0.000    2.543    2.572
 mp_alltoall_d11v                  2141 13.8    1.890    2.380    1.890    2.380
 mp_sum_d                          4137 11.9    1.550    2.302    1.550    2.302
 dbcsr_finalize                    6032 13.6    0.016    0.017    2.149    2.262
 cp_dbcsr_sm_fm_multiply             37  9.5    0.001    0.001    2.225    2.226
 dbcsr_merge_all                   4914 14.8    0.940    0.972    2.095    2.208
 build_core_hamiltonian_matrix       11  6.9    0.000    0.001    2.100    2.168
 cp_dbcsr_sm_fm_multiply_core        37 10.5    0.000    0.000    2.041    2.097
 qs_ot_get_p                        119 10.4    0.002    0.002    1.898    2.069
 make_images_data                  4572 15.5    0.030    0.031    1.672    1.919
 hybrid_alltoall_any               4725 16.4    0.317    0.700    1.578    1.800
 rs_pw_transfer_RS2PW_140           130 11.5    0.569    0.605    1.362    1.668
 qs_env_update_s_mstruct             11  6.9    0.000    0.000    1.468    1.546
 dbcsr_trace_a_b_d                 1205 11.9    0.245    0.250    0.907    1.501
 qs_vxc_create                      119 10.3    0.001    0.002    1.294    1.458
 xc_vxc_pw_create                   119 11.3    0.137    0.140    1.293    1.456
 qs_ot_get_derivative_diag           49 12.0    0.002    0.002    1.370    1.449
 make_images_pack                  4572 15.5    1.370    1.398    1.385    1.413
 qs_ot_get_derivative_taylor         59 13.0    0.002    0.002    1.316    1.385
 buffer_matrices_ensure_size       4572 14.5    1.040    1.334    1.056    1.352
 build_core_ppl                      11  7.9    1.308    1.351    1.308    1.351
 mp_alltoall_z22v                  1201 16.6    1.045    1.291    1.045    1.291
 mp_waitany                        3120 13.7    0.968    1.278    0.968    1.278
 fft_wrap_pw1pw2_50                 238 14.0    0.066    0.069    1.078    1.237
 multiply_cannon_metrocomm3        9144 14.5    0.010    0.010    0.583    1.148
 cp_fm_cholesky_invert               11 10.9    1.055    1.100    1.055    1.100
 yz_to_x                            606 15.1    0.327    0.354    0.931    1.065
 dbcsr_make_dense_low              7826 15.6    0.030    0.031    0.952    1.056
 qs_create_task_list                 11  7.9    0.000    0.000    1.049    1.054
 generate_qs_task_list               11  8.9    0.555    0.585    1.049    1.054
 cp_fm_cholesky_decompose            22 10.9    0.973    1.022    0.973    1.022
 rs_pw_transfer_PW2RS_140           130 13.9    0.557    0.600    0.970    1.000
 make_dense_data                   7826 16.6    0.846    0.955    0.878    0.987
 x_to_yz                            595 16.2    0.403    0.419    0.844    0.967
 dbcsr_make_images_dense           3978 14.8    0.023    0.024    0.865    0.967
 build_overlap_matrix                22  6.9    0.480    0.527    0.894    0.960
 mp_sum_l                          4052 13.7    0.571    0.950    0.571    0.950
 build_kinetic_matrix                22  6.9    0.860    0.916    0.877    0.933
 qs_ot_get_orbitals                 108 10.5    0.001    0.001    0.886    0.895
 xc_rho_set_and_dset_create         119 12.3    0.002    0.002    0.853    0.882
 mp_allgather_i34                  2286 14.5    0.381    0.863    0.381    0.863
 qs_ot_p2m_diag                      50 11.0    0.026    0.027    0.831    0.833
 multiply_cannon_metrocomm4        6858 14.5    0.012    0.013    0.453    0.829
 xc_functional_eval                 119 13.3    0.798    0.823    0.798    0.823
 mp_irecv_dv                      28946 15.7    0.431    0.806    0.431    0.806
 pw_poisson_solve                   119 10.3    0.560    0.580    0.778    0.778
 make_basis_sm                       11  9.8    0.000    0.000    0.772    0.773
 pw_gather_p                        606 14.1    0.703    0.760    0.703    0.760
 reorthogonalize_vectors             10  9.0    0.000    0.000    0.691    0.692
 cp_dbcsr_syevd                      50 12.0    0.003    0.003    0.681    0.681
 pw_scatter_p                       595 15.2    0.663    0.673    0.663    0.673
 ot_scf_init                         11  7.9    0.001    0.001    0.652    0.654
 cp_fm_syevd                         50 13.0    0.000    0.000    0.651    0.652
 cp_fm_syevd_base                    50 14.0    0.651    0.652    0.651    0.652
 build_core_ppnl_forces              11  5.9    0.583    0.622    0.583    0.622
 dbcsr_complete_redistribute        329 12.2    0.272    0.277    0.566    0.587
 copy_dbcsr_to_fm                   153 11.3    0.045    0.045    0.526    0.578
 tree_to_linear_d                  1073 14.6    0.505    0.568    0.513    0.575
 distribute_tasks                    11  9.9    0.141    0.144    0.493    0.523
 cp_dbcsr_plus_fm_fm_t_native        22  8.9    0.000    0.000    0.508    0.516
 dbcsr_data_copyall               53273  9.1    0.441    0.500    0.441    0.500
 calculate_rho_core                  11  7.9    0.026    0.028    0.404    0.488
 dbcsr_data_copy_aa2               2836 15.1    0.438    0.465    0.438    0.465
 dbcsr_data_release              174458 16.0    0.084    0.087    0.289    0.426
 pw_copy                            952 12.7    0.408    0.418    0.408    0.418
 overlap_ab                      249218  7.9    0.393    0.413    0.393    0.413
 rs_pw_transfer_RS2PW_50            119 11.7    0.187    0.191    0.373    0.410
 make_images_sizes                 4572 15.5    0.004    0.005    0.287    0.396
 dbcsr_destroy                    35951 14.0    0.052    0.070    0.255    0.394
 mp_alltoall_i44                   4572 16.5    0.283    0.391    0.283    0.391
 dbcsr_copy                        6804 12.3    0.030    0.031    0.372    0.379
 transfer_dbcsr_to_fm                11 10.9    0.000    0.000    0.359    0.374
 qs_energies_compute_matrix_w        11  5.9    0.000    0.000    0.370    0.373
 calculate_w_matrix_ot               11  6.9    0.001    0.001    0.370    0.373
 internal_data_deallocate         59514 16.8    0.062    0.083    0.207    0.345
 rs_pw_transfer_PW2RS_50            119 14.3    0.159    0.164    0.325    0.343
 rs_grid_zero                       617 10.8    0.332    0.338    0.332    0.338
 copy_fm_to_dbcsr                   176 11.2    0.047    0.048    0.305    0.320
 calculate_ecore_overlap             22  5.9    0.000    0.000    0.162    0.309
 mp_deallocate_d                  37815 17.3    0.156    0.306    0.156    0.306
 cp_gemm                             81  9.0    0.000    0.000    0.305    0.306
 cp_gemm_fm_gemm                     81 10.0    0.000    0.000    0.305    0.306
 cp_fm_gemm                          81 11.0    0.304    0.305    0.304    0.305
 dbcsr_data_new                   95493 15.6    0.069    0.073    0.170    0.261
 calculate_first_density_matrix       1  7.0    0.000    0.000    0.257    0.258
 dbcsr_add_wm_from_matrix           443 12.9    0.001    0.001    0.166    0.237
 multiply_cannon_metrocomm2       13716 14.5    0.022    0.024    0.228    0.237
 dbcsr_arnoldi_extremal             119 11.4    0.001    0.002    0.181    0.231
 mp_isend_dv                      28427 15.7    0.216    0.230    0.216    0.230
 dbcsr_arnoldi_normal_ev            119 12.4    0.002    0.002    0.180    0.230
 load_balance_distributed            11 10.9    0.000    0.000    0.195    0.223
 dbcsr_fill_wm_from_matrix          443 13.9    0.022    0.023    0.159    0.222
 dbcsr_desymmetrize_deep            153 12.3    0.036    0.038    0.164    0.219
 dbcsr_create_new                 41905 14.5    0.077    0.081    0.208    0.219
 compute_load_list                   22 11.9    0.143    0.146    0.192    0.218
 dbcsr_add_d                       1881 12.8    0.002    0.002    0.213    0.216
 mp_alltoall_i22                    627 13.8    0.132    0.215    0.132    0.215
 dbcsr_add_anytype                 1881 13.8    0.123    0.125    0.212    0.215
 internal_data_allocate           59514 16.6    0.059    0.068    0.110    0.210
 create_qs_kind_set                   1  2.0    0.022    0.173    0.177    0.207
 read_qs_kind                         2  3.0    0.132    0.183    0.155    0.207
 setup_rec_index_2d                4572 14.5    0.009    0.009    0.202    0.205
 merge_index                       4914 15.8    0.182    0.197    0.182    0.197
 call_rec_sort_index               6814 15.5    0.193    0.197    0.193    0.197
 dbcsr_special_finalize            6858 15.5    0.008    0.009    0.188    0.196
 dbcsr_make_untransposed_blocks    2729 13.4    0.154    0.185    0.164    0.195
 pw_axpy                            595 10.6    0.188    0.193    0.188    0.193
 evaluate_core_matrix_traces        119  8.3    0.000    0.000    0.192    0.193
 calculate_ptrace_kp                238  9.3    0.000    0.000    0.192    0.192
 build_core_ppnl                     11  7.9    0.175    0.192    0.175    0.192
 fft_wrap_pw1pw2_20                 238 14.0    0.013    0.014    0.177    0.189
 cp_fm_upper_to_full                 22 12.4    0.168    0.183    0.168    0.183
 dbcsr_make_dense                  1859 13.9    0.005    0.006    0.178    0.181
 qs_init_subsys                       1  2.0    0.033    0.051    0.159    0.178
 transfer_fm_to_dbcsr                11  9.9    0.000    0.000    0.155    0.170
 mp_allocate_d                    37815 17.4    0.066    0.162    0.066    0.162
 dbcsr_make_undense                1859 13.9    0.118    0.120    0.143    0.147
 get_current_loads                  110 11.7    0.071    0.073    0.112    0.143
 dbcsr_matrix_colvec_multiply_l    1669 14.0    0.001    0.002    0.095    0.134
 dbcsr_sort_indices               12333 16.4    0.125    0.133    0.125    0.133
 dbcsr_matrix_vector_mult          1669 15.0    0.004    0.005    0.094    0.133
 quick_finalize                    6826 16.5    0.020    0.022    0.123    0.132
 topology_control                     1  2.0    0.079    0.122    0.108    0.130
 dbcsr_new_transposed               954 13.3    0.009    0.009    0.077    0.116
 arnoldi_init                       119 13.4    0.001    0.002    0.063    0.112
 qs_env_setup                         1  3.0    0.005    0.009    0.101    0.105
 integrate_v_core_rspace             11  7.9    0.015    0.016    0.097    0.100
 dbcsr_set_anytype                  603 11.9    0.094    0.095    0.096    0.098
 qs_ot_p2m_taylor                    69 11.7    0.001    0.001    0.096    0.098
 rs_pw_transfer_PW2RS_20            119 14.3    0.039    0.040    0.083    0.096
 qs_env_rebuild_pw_env               23  5.3    0.000    0.000    0.094    0.095
 pw_env_rebuild                       1  5.0    0.002    0.002    0.093    0.094
 build_subspace                     119 13.4    0.003    0.004    0.092    0.093
 dbcsr_redistribute                 145 14.7    0.007    0.007    0.053    0.092
 rs_pw_transfer_RS2PW_20            119 11.7    0.042    0.043    0.087    0.091
 mp_sum_dv                         6497 15.7    0.048    0.086    0.048    0.086
 create_local_tasks                  11 10.9    0.065    0.069    0.084    0.085
 mp_sum_dm                          438  4.9    0.060    0.081    0.060    0.081
 setup_buffer_matrices             4572 14.5    0.017    0.019    0.077    0.081
 mp_isendrecv_dv                   4998 14.0    0.051    0.081    0.051    0.081
 dbcsr_mm_multrec_init             2286 14.5    0.004    0.005    0.079    0.080
 dbcsr_mm_csr_init                 2286 15.5    0.042    0.043    0.075    0.076
 pw_grid_setup                        4  6.0    0.001    0.001    0.076    0.076
 mp_alltoall_l                      121 12.6    0.041    0.076    0.041    0.076
 pw_grid_setup_internal               4  7.0    0.002    0.002    0.075    0.075
 cp_dbcsr_alloc_block_from_nbl       88  7.7    0.019    0.020    0.072    0.074
 pw_zero                            119 10.7    0.071    0.072    0.071    0.072
 build_qs_neighbor_lists             11  6.9    0.001    0.001    0.067    0.070
 mp_bcast_b                        1737 13.6    0.044    0.067    0.044    0.067
 dbcsr_iterator_start             34955 16.2    0.040    0.043    0.059    0.062
 mp_isend_iv                      32581 15.8    0.057    0.061    0.057    0.061
 dbcsr_make_index_exist           41905 15.5    0.039    0.041    0.056    0.060
 dbcsr_merge_single_wm              854 14.5    0.004    0.005    0.057    0.057
 pw_grid_sort                         4  8.0    0.033    0.034    0.056    0.057
 dbcsr_reserve_blocks               564 14.3    0.047    0.050    0.054    0.057
 external_control                   118  7.2    0.000    0.001    0.035    0.054
 kpoint_initialize                    1  2.0    0.011    0.048    0.011    0.048
 mp_sum_iv                          262 11.4    0.030    0.048    0.030    0.048
 cp_fm_triangular_multiply           11 10.8    0.046    0.047    0.046    0.047
 dbcsr_switch_data_area           22746 15.9    0.013    0.014    0.044    0.047
 dbcsr_sort_data                    854 15.5    0.045    0.046    0.045    0.046
 md_write_output                     11  3.9    0.004    0.030    0.007    0.045
 coordinate_control                   1  3.0    0.000    0.000    0.017    0.045
 coordinate_control_READ_COORDI       1  4.0    0.016    0.043    0.017    0.045
 md_output                           10  3.0    0.000    0.000    0.008    0.044
 read_binary_coordinates              1  3.0    0.005    0.043    0.005    0.043
 dbcsr_work_create                12574 14.7    0.018    0.019    0.034    0.043
 load_balance_replicated             11 10.9    0.010    0.010    0.041    0.041
 fft_wrap_pw1pw2_10                 238 14.0    0.003    0.004    0.033    0.040
 update_particle_set                 20  4.0    0.000    0.000    0.035    0.040
 dbcsr_iterator_stop              34955 16.2    0.025    0.026    0.038    0.039
 dbcsr_work_destroy_all           12574 15.7    0.013    0.013    0.030    0.036
 mp_irecv_iv                      32592 15.8    0.028    0.034    0.028    0.034
 dbcsr_copy_into_existing            22  7.9    0.011    0.012    0.033    0.034
 cp_dbcsr_cholesky_decompose         11 12.9    0.018    0.019    0.029    0.033
 cp_fm_create                       225 11.7    0.028    0.029    0.028    0.029
 fill_hash_tables                  2286 16.5    0.028    0.028    0.028    0.028
 mp_allocate_i                    31063 16.9    0.023    0.025    0.023    0.025
 mp_deallocate_i                  31063 16.6    0.022    0.025    0.022    0.025
 dbcsr_make_dists_dense            1989 13.8    0.016    0.016    0.024    0.024
 parser_read_line                  2671  4.0    0.001    0.001    0.023    0.024
 sort_shells                          4  9.0    0.023    0.024    0.023    0.024
 dbcsr_col_vec_to_rep_row          1669 16.0    0.003    0.004    0.019    0.024
 dbcsr_make_index_list             6858 14.5    0.022    0.023    0.022    0.023
 parser_read_line_low                 4  5.0    0.003    0.014    0.022    0.023
 dbcsr_distribution_new           12473 14.0    0.022    0.022    0.022    0.022
 rs_pw_transfer_PW2RS_10            119 14.3    0.009    0.009    0.020    0.022
 rs_pw_transfer_RS2PW_10            119 11.7    0.010    0.011    0.021    0.022
 build_neighbor_lists_sab_all        11  7.9    0.021    0.021    0.021    0.021
 broadcast_input_information          4  6.0    0.000    0.000    0.019    0.021
 init_qs_kind_set                     1  3.0    0.000    0.000    0.020    0.020
 init_qs_kind                         2  4.0    0.000    0.000    0.020    0.020
 init_orb_basis_set                   2  5.0    0.000    0.000    0.019    0.020
 init_cphi_and_sphi                   2  6.0    0.019    0.019    0.019    0.019
 dbcsr_iterator_seek              34955 17.2    0.018    0.019    0.018    0.019
 dbcsr_matrix_vector_mult_local    1669 16.0    0.015    0.015    0.018    0.019
 make_full_kinetic                   11  9.9    0.000    0.000    0.018    0.018
 mp_alltoall_i11v                  1575 13.9    0.013    0.018    0.013    0.018
 build_neighbor_lists_sac_ppl        11  7.9    0.018    0.018    0.018    0.018
 compute_evals                      119 13.4    0.015    0.016    0.015    0.016
 build_neighbor_lists_sab_orb        11  7.9    0.016    0.016    0.016    0.016
 dbcsr_scale_by_vector_anytype      208 11.2    0.015    0.015    0.016    0.016
 mp_sum_b                          4022 13.8    0.016    0.016    0.016    0.016
 mp_alltoall_l11v                    11 11.9    0.012    0.016    0.012    0.016
 mp_bcast_i                         101  2.8    0.013    0.015    0.013    0.015
 qs_env_rebuild_rho                  11  7.9    0.000    0.000    0.015    0.015
 qs_rho_rebuild                      11  8.9    0.000    0.001    0.014    0.015
 pw_scale                           119 10.3    0.014    0.015    0.014    0.015
 get_fft_scratch                   1202 15.6    0.014    0.015    0.014    0.015
 dbcsr_make_dbcsr_index           14352 16.5    0.014    0.015    0.014    0.015
 write_trajectory                    44  4.9    0.001    0.002    0.003    0.014
 dbcsr_cholesky_invert               11 12.9    0.008    0.009    0.014    0.014
 mp_irecv_dm3                      1040 13.7    0.006    0.014    0.006    0.014
 dbcsr_zero                        3667 16.2    0.013    0.014    0.013    0.014
 dbcsr_scale_anytype               2109 14.8    0.009    0.011    0.010    0.012
 write_particle_coordinates          11  5.9    0.001    0.012    0.001    0.012
 pw_grid_assign                       4  8.0    0.010    0.011    0.011    0.012
 dbcsr_scale_d                      228 13.5    0.000    0.000    0.010    0.012
 compute_max_radius                   1  6.0    0.012    0.012    0.012    0.012
 dbcsr_mm_multrec_finalize         2286 15.5    0.009    0.010    0.010    0.012
 wfs_update                          11  5.9    0.000    0.000    0.011    0.012
 fft3d_s                              1  2.0    0.000    0.000    0.011    0.012
 calculate_atomic_block_dm            1  8.0    0.003    0.004    0.011    0.011
 build_neighbor_lists_sap_ppnl       11  7.9    0.009    0.011    0.009    0.011
 dbcsr_make_index_local_row        6858 14.5    0.008    0.009    0.009    0.010
 dbcsr_index_prune_deleted         5967 15.8    0.010    0.010    0.010    0.010
 dbcsr_get_data_size_used          5716 14.8    0.009    0.009    0.009    0.009
 dbcsr_finalize_lib                   1  2.0    0.001    0.001    0.008    0.009
 cp_fm_init_random                    1  8.0    0.009    0.009    0.009    0.009
 create_fast_row_vec_access        1669 16.0    0.002    0.002    0.007    0.008
 write_symmetry                       1  3.0    0.001    0.008    0.001    0.008
 mp_max_l                            22  2.0    0.007    0.008    0.007    0.008
 mp_bcast_am                          4  7.0    0.002    0.007    0.007    0.007
 transpose_index_local              954 14.3    0.002    0.002    0.007    0.007
 create_fast_col_vec_access        1669 16.0    0.001    0.001    0.007    0.007
 mp_bcast_dv                       1669 17.0    0.004    0.007    0.004    0.007
 Gram_Schmidt_ortho_d              1550 14.0    0.002    0.004    0.005    0.007
 create_fast_row_vec_access_d      1669 17.0    0.002    0.002    0.006    0.006
 rot_ana                              1  3.0    0.000    0.000    0.006    0.006
 diamat_all                           1  4.0    0.006    0.006    0.006    0.006
 mp_bcast_iv                         23  4.6    0.005    0.006    0.005    0.006
 create_fast_col_vec_access_d      1669 17.0    0.002    0.002    0.006    0.006
 mp_bcast_av                        554  1.0    0.001    0.001    0.004    0.006
 connectivity_control                 1  3.0    0.001    0.001    0.006    0.006
 mp_isend_dm3                      1040 13.7    0.005    0.005    0.005    0.005
 optimize_load_list                  11 11.9    0.000    0.000    0.003    0.005
 pw_pool_create_pw                 2416 11.8    0.002    0.002    0.004    0.005
 calculate_atom                       2  9.0    0.000    0.000    0.005    0.005
 calculate_atom_restricted            2 10.0    0.005    0.005    0.005    0.005
 dbcsr_get_local_cols              4145 14.1    0.005    0.005    0.005    0.005
 dbcsr_hadamard_product              98 13.0    0.002    0.002    0.005    0.005
 DGKS_ortho_d                      1550 14.0    0.001    0.002    0.004    0.005
 write_restart                       10  4.0    0.001    0.004    0.002    0.005
 dbcsr_add_on_diag_anytype          138 12.7    0.001    0.002    0.003    0.005
 topology_generate_bond               1  4.0    0.000    0.000    0.004    0.004
 dbcsr_get_local_rows              4145 14.1    0.004    0.004    0.004    0.004
 create_col_vec_from_matrix         238 13.4    0.001    0.001    0.003    0.004
 mp_environ_l                      1302 14.6    0.003    0.004    0.003    0.004
 mp_rank_compare                   1201 15.6    0.003    0.004    0.003    0.004
 pw_grid_remap                        4  8.0    0.001    0.001    0.003    0.004
 dbcsr_gershgorin_norm               48 11.0    0.000    0.001    0.003    0.004
 dbcsr_mm_sched_init               2286 16.5    0.002    0.002    0.004    0.004
 scf_post_calculation_gpw            11  5.9    0.001    0.001    0.003    0.004
 qs_scf_ensure_work_matrices         11  5.9    0.000    0.000    0.003    0.004
 mp_bcast_im                        120 14.3    0.002    0.003    0.002    0.003
 mp_comm_compare                   1204 15.6    0.002    0.003    0.002    0.003
 mp_sum_im3                           4  9.0    0.002    0.003    0.002    0.003
 dbcsr_reserve_all_blocks           476 14.4    0.001    0.001    0.002    0.003
 cp_fm_to_fm_matrix                  21  7.9    0.003    0.003    0.003    0.003
 mp_max_d                          1107  1.0    0.003    0.003    0.003    0.003
 pw_create                          382 12.9    0.002    0.003    0.002    0.003
 cp_fm_scale_and_add                 24  9.0    0.003    0.003    0.003    0.003
 mp_environ_c                      1201 15.6    0.002    0.003    0.002    0.003
 pw_pool_give_back_pw              2867 12.0    0.003    0.003    0.003    0.003
 mp_sum_root_iv                      11 12.9    0.001    0.003    0.001    0.003
 pw_poisson_rebuild                 119 11.3    0.002    0.003    0.002    0.003
 build_neighbor_lists_sab_core       11  7.9    0.002    0.002    0.002    0.002
 cleanup_scf_loop                    11  7.9    0.000    0.000    0.002    0.002
 topology_generate_bond_3             1  5.0    0.000    0.000    0.002    0.002
 mp_bcast_i3                         11 12.9    0.001    0.002    0.001    0.002
 distribute_molecules_2d              1  4.0    0.001    0.002    0.001    0.002
 build_fist_neighbor_lists            1  6.0    0.000    0.001    0.002    0.002
 mp_max_i                           348  1.6    0.002    0.002    0.002    0.002
 dbcsr_get_global_row_map          2286 13.5    0.002    0.002    0.002    0.002
 cp_dbcsr_distribution_new_clus     413  9.1    0.001    0.001    0.001    0.002
 write_available_results             11  6.9    0.000    0.001    0.002    0.002
 qs_scf_loop_print                  108  7.5    0.002    0.002    0.002    0.002
 write_mo_set_to_restart            108  7.5    0.002    0.002    0.002    0.002
 dbcsr_get_global_col_map          2286 13.5    0.002    0.002    0.002    0.002
 build_neighbor_lists                 1  7.0    0.001    0.002    0.002    0.002
 atom_int_setup                       2  9.0    0.002    0.002    0.002    0.002
 mp_allgather_l                     121 12.6    0.001    0.002    0.001    0.002
 init_interaction_radii               1  3.0    0.001    0.002    0.001    0.002
 create_replicated_col_vec_from     119 13.4    0.000    0.000    0.002    0.002
 mp_comm_dup                          8  6.5    0.002    0.002    0.002    0.002
 pw_grid_distribute                   4  8.0    0.001    0.001    0.002    0.002
 scf_c_write_parameters               1  3.0    0.000    0.002    0.000    0.002
 dbcsr_mm_sched_finalize           2286 16.5    0.002    0.002    0.002    0.002
 rs_grid_create_descriptor            4  6.0    0.000    0.000    0.001    0.002
 dbcsr_verify_matrix                 22  9.9    0.002    0.002    0.002    0.002
 restraint_control                   11  3.9    0.001    0.001    0.001    0.002
 release_fast_vec_access           3338 16.0    0.001    0.002    0.001    0.002
 create_replicated_row_vec_from     119 13.4    0.000    0.000    0.001    0.001
 atom_ppint_setup                     2  9.0    0.001    0.001    0.001    0.001
 read_atoms_input                     1  5.0    0.001    0.001    0.001    0.001
 topology_generate_bond_4             1  5.0    0.001    0.001    0.001    0.001
 dbcsr_get_conf_nstacks            2286 16.5    0.001    0.001    0.001    0.001
 dbcsr_mm_hostdrv_init             2286 17.5    0.001    0.001    0.001    0.001
 write_mo_dependent_results          11  7.9    0.001    0.001    0.001    0.001
 ot_scf_read_input                   11  7.9    0.000    0.000    0.001    0.001
 topology_generate_bond_2             1  5.0    0.001    0.001    0.001    0.001
 init_cube_info                       4  6.0    0.001    0.001    0.001    0.001
 qs_ks_did_change                   130  7.7    0.000    0.000    0.001    0.001
 mp_cart_create                       5  9.4    0.001    0.001    0.001    0.001
 setup_velocities                     1  3.0    0.000    0.000    0.001    0.001
 write_mo_free_results               11  7.9    0.001    0.001    0.001    0.001
 update_input                         1  5.0    0.000    0.000    0.001    0.001
 ot_readwrite_input                  11  8.9    0.000    0.001    0.000    0.001
 initialize_velocities                1  4.0    0.001    0.001    0.001    0.001
 pw_grid_allocate                     4  8.0    0.000    0.001    0.000    0.001
 mp_sync                              4  7.0    0.001    0.001    0.001    0.001
 read_qs_section                      1  3.0    0.001    0.001    0.001    0.001
 qs_efield_local_operator           119 10.3    0.001    0.001    0.001    0.001
 topology_connectivity_pack           1  3.0    0.000    0.000    0.001    0.001
 rs_grid_create                      15  8.9    0.000    0.001    0.000    0.001
 mpools_rebuild_fm_pools              1  4.0    0.000    0.000    0.000    0.001
 pw_env_create                        1  5.0    0.000    0.001    0.000    0.001
 scf_env_release                      3  4.0    0.000    0.000    0.000    0.001
 destroy_preconditioner               1  3.0    0.000    0.000    0.000    0.001
 wfn_mix                             11  6.9    0.000    0.001    0.000    0.001
 qs_efield_berry_phase              119 10.3    0.001    0.001    0.001    0.001
 update_subsys                        1  6.0    0.000    0.000    0.001    0.001
 write_qs_control                     1  3.0    0.001    0.001    0.001    0.001
 cp_fm_release                      230 11.4    0.000    0.001    0.000    0.001
 external_e_potential                22  5.9    0.000    0.001    0.000    0.001
 topology_generate_molecule           1  4.0    0.000    0.001    0.000    0.001
 temperature_control                 10  3.0    0.000    0.001    0.000    0.001
 qs_scf_ensure_mos                   11  5.9    0.000    0.000    0.000    0.001
 distribute_molecules_1d              1  3.0    0.000    0.001    0.000    0.001
 qs_scf_print_scf_summary            11  7.9    0.000    0.001    0.000    0.001
 section_coord_val_set                1  7.0    0.001    0.001    0.001    0.001
 dump_info_core_hamiltonian          22  6.9    0.001    0.001    0.001    0.001
 fix_atom_control                    11  3.9    0.000    0.001    0.000    0.001
 mp_sum_im                            5  6.8    0.000    0.001    0.000    0.001
 mp_comm_free                        15  3.0    0.000    0.000    0.000    0.000
 calculate_atom_vxc_lda              12 11.0    0.000    0.000    0.000    0.000
 topology_coordinate_pack             1  3.0    0.000    0.000    0.000    0.000
 mp_sum_i                            12  4.6    0.000    0.000    0.000    0.000
 mp_sum_lv                           20  4.0    0.000    0.000    0.000    0.000
 scf_c_create                         1  3.0    0.000    0.000    0.000    0.000
 atom_relint_setup                    2  9.0    0.000    0.000    0.000    0.000
 compute_averages                    10  5.0    0.000    0.000    0.000    0.000
 qs_energies_init_kg                 11  5.9    0.000    0.000    0.000    0.000
 check_generate_mol                   1  6.0    0.000    0.000    0.000    0.000
 mp_min_lv                            4  8.0    0.000    0.000    0.000    0.000
 mp_sum_partial_im                   11 12.9    0.000    0.000    0.000    0.000
 cp_fm_scale                         10  9.0    0.000    0.000    0.000    0.000
 set_mo_occupation_1                120  9.4    0.000    0.000    0.000    0.000
 fist_neighbor_init                   1  8.0    0.000    0.000    0.000    0.000
 topology_coordinate_pack_2           1  4.0    0.000    0.000    0.000    0.000
 qs_scf_post_elf                     11  6.9    0.000    0.000    0.000    0.000
 mp_cart_sub                          2 11.0    0.000    0.000    0.000    0.000
 create_local_fixd_list              11  4.9    0.000    0.000    0.000    0.000
 create_grid_atom                     2  9.0    0.000    0.000    0.000    0.000
 write_structure_data                12  4.8    0.000    0.000    0.000    0.000
 topology_coordinate_pack_4           1  4.0    0.000    0.000    0.000    0.000
 atom2d_build                        11  7.9    0.000    0.000    0.000    0.000
 mp_cart_rank                         4  9.0    0.000    0.000    0.000    0.000
 qs_scf_post_charges                 11  6.9    0.000    0.000    0.000    0.000
 dbcsr_filter_anytype               163  9.7    0.000    0.000    0.000    0.000
 update_motion                        1  6.0    0.000    0.000    0.000    0.000
 topology_connectivity_pack_13_       1  4.0    0.000    0.000    0.000    0.000
 qs_energies_properties              11  5.9    0.000    0.000    0.000    0.000
 topology_generate_bond_1             1  5.0    0.000    0.000    0.000    0.000
 connectivity_control_check_ele       1  4.0    0.000    0.000    0.000    0.000
 mp_cart_coords                      32  9.0    0.000    0.000    0.000    0.000
 qs_scf_post_ps_implicit             11  8.9    0.000    0.000    0.000    0.000
 -------------------------------------------------------------------------------

 The number of warnings for this run is : 1
 
 -------------------------------------------------------------------------------
  **** **** ******  **  PROGRAM ENDED AT                 2017-10-27 12:45:29.927
 ***** ** ***  *** **   PROGRAM RAN ON                                      f356
 **    ****   ******    PROGRAM RAN BY                                    ongari
 ***** **    ** ** **   PROGRAM PROCESS ID                                 17895
  **** **  *******  **  PROGRAM STOPPED IN /scratch/ongari/lsmo_benchmark/cp2k/0
                                           4_fidis_cp2k-4.1_intel-mpi-plumed/nco
                                           res_008
