 DBCSR| Multiplication driver                                                SMM
 DBCSR| Multrec recursion limit                                              512
 DBCSR| Multiplication stack size                                           1000
 DBCSR| Maximum elements for images                                    UNLIMITED
 DBCSR| Multiplicative factor virtual images                                   1
 DBCSR| Multiplication size stacks                                             3
 DBCSR| Number of 3D layers                                               SINGLE
 DBCSR| Use MPI memory allocation                                              T
 DBCSR| Use RMA algorithm                                                      F
 DBCSR| Use Communication thread                                               T
 DBCSR| Communication thread load                                             83


  **** **** ******  **  PROGRAM STARTED AT               2018-01-08 15:44:55.821
 ***** ** ***  *** **   PROGRAM STARTED ON                              nid03176
 **    ****   ******    PROGRAM STARTED BY                                ongari
 ***** **    ** ** **   PROGRAM PROCESS ID                                 20456
  **** **  *******  **  PROGRAM STARTED IN /scratch/snx3000/ongari/lsmo_benchmar
                                           k/cp2k/06_daint_cp2k-5.0_CrayGNU-cuda
                                           /ncores_008

 CP2K| version string:                    CP2K version 5.0 (Development Version)
 CP2K| source code revision number:                                             
 CP2K| cp2kflags: omp libint fftw3 libxc parallel mpi3 scalapack smm_dnn smm    
 CP2K| is freely available from                            https://www.cp2k.org/
 CP2K| Program compiled at                         Thu Oct 12 19:13:15 CEST 2017
 CP2K| Program compiled on                                              daint103
 CP2K| Program compiled for                         CP2K-5.0r18043-CrayGNU-17.08
 CP2K| Data directory path    /dev/shm/jenscscs/easybuild/stage/build/CP2K/5.0r1
 CP2K| Input file name                                                H2O-64.inp

 GLOBAL| Force Environment number                                              1
 GLOBAL| Basis set file name                                      GTH_BASIS_SETS
 GLOBAL| Potential file name                                           POTENTIAL
 GLOBAL| MM Potential file name                                     MM_POTENTIAL
 GLOBAL| Coordinate file name                                      __STD_INPUT__
 GLOBAL| Method name                                                        CP2K
 GLOBAL| Project name                                                     H2O-64
 GLOBAL| Preferred FFT library                                             FFTW3
 GLOBAL| Preferred diagonalization lib.                                       SL
 GLOBAL| Run type                                                             MD
 GLOBAL| All-to-all communication in single precision                          F
 GLOBAL| FFTs using library dependent lengths                                  F
 GLOBAL| Global print level                                                  LOW
 GLOBAL| Total number of message passing processes                             8
 GLOBAL| Number of threads for this process                                    2
 GLOBAL| This output is from process                                           0
 GLOBAL| CPU model name :  Intel(R) Xeon(R) CPU E5-2690 v3 @ 2.60GHz

 MEMORY| system memory details [Kb]
 MEMORY|                        rank 0           min           max       average
 MEMORY| MemTotal             65844576      65844576      65844576      65844576
 MEMORY| MemFree              63287976      63287976      63287976      63287976
 MEMORY| Buffers                   124           124           124           124
 MEMORY| Cached                 518292        518292        518292        518292
 MEMORY| Slab                   185488        185488        185488        185488
 MEMORY| SReclaimable            16784         16784         16784         16784
 MEMORY| MemLikelyFree        63823176      63823176      63823176      63823176


 GENERATE|  Preliminary Number of Bonds generated:                             0
 GENERATE|  Achieved consistency in connectivity generation.

 *******************************************************************************
 *******************************************************************************
 **                                                                           **
 **     #####                         ##              ##                      **
 **    ##   ##            ##          ##              ##                      **
 **   ##     ##                       ##            ######                    **
 **   ##     ##  ##   ##  ##   #####  ##  ##   ####   ##    #####    #####    **
 **   ##     ##  ##   ##  ##  ##      ## ##   ##      ##   ##   ##  ##   ##   **
 **   ##  ## ##  ##   ##  ##  ##      ####     ###    ##   ######   ######    **
 **    ##  ###   ##   ##  ##  ##      ## ##      ##   ##   ##       ##        **
 **     #######   #####   ##   #####  ##  ##  ####    ##    #####   ##        **
 **           ##                                                    ##        **
 **                                                                           **
 **                                                ... make the atoms dance   **
 **                                                                           **
 **            Copyright (C) by CP2K developers group (2000 - 2017)           **
 **                                                                           **
 *******************************************************************************


 SCF PARAMETERS         Density guess:                                    ATOMIC
                        --------------------------------------------------------
                        max_scf:                                              50
                        max_scf_history:                                       0
                        max_diis:                                              4
                        --------------------------------------------------------
                        eps_scf:                                        1.00E-05
                        eps_scf_history:                                0.00E+00
                        eps_diis:                                       1.00E-01
                        eps_eigval:                                     1.00E-05
                        --------------------------------------------------------
                        level_shift [a.u.]:                                 0.00
                        --------------------------------------------------------
                        No outer SCF

 MD| Molecular Dynamics Protocol 
 MD| Ensemble Type                                                           NVE
 MD| Number of Time Steps                                                     10
 MD| Time Step [fs]                                                         0.50
 MD| Temperature [K]                                                      300.00
 MD| Temperature tolerance [K]                                              0.00
 MD| Print MD information every                                        1 step(s)
 MD| File type     Print frequency[steps]                             File names
 MD| Coordinates            1                                   H2O-64-pos-1.xyz
 MD| Velocities             1                                   H2O-64-vel-1.xyz
 MD| Energies               1                                      H2O-64-1.ener
 MD| Dump                  20                                   H2O-64-1.restart

 ROT| Rotational Analysis Info 
 ROT| Principal axes and moments of inertia in atomic units:
 ROT|                                1                 2                 3
 ROT| EIGENVALUES            0.174175353E+09   0.187507692E+09   0.199545123E+09
 ROT|      X                    -0.734964520       0.242599134       0.633224142
 ROT|      Y                    -0.044883650       0.914361712      -0.402402930
 ROT|      Z                    -0.676618513      -0.324173287      -0.661134682
 ROT| Numer of Rotovibrational vectors:     6

 Calculation of degrees of freedom
                                                      Number of atoms:       192
                                 Number of Intramolecular constraints:         0
                                 Number of Intermolecular constraints:         0
                                  Invariants(translation + rotations):         3
                                                   Degrees of freedom:       573


 Restraints Information
                                  Number of Intramolecular restraints:         0
                                  Number of Intermolecular restraints:         0
 ************************** Velocities initialization **************************
 Initial Temperature                                                    300.00 K
 COM velocity:           -0.000000000000     -0.000000000000     -0.000000000000
 *******************************************************************************


 Number of electrons:                                                        512
 Number of occupied orbitals:                                                256
 Number of molecular orbitals:                                               256

 Number of orbital functions:                                               2560
 Number of independent orbital functions:                                   2560

 Extrapolation method: initial_guess


 SCF WAVEFUNCTION OPTIMIZATION

  ----------------------------------- OT ---------------------------------------
  Minimizer      : DIIS                : direct inversion
                                         in the iterative subspace
                                         using   7 DIIS vectors
                                         safer DIIS on
  Preconditioner : FULL_KINETIC        : inversion of T + eS
  Precond_solver : DEFAULT
  stepsize       :    0.15000000                  energy_gap     :    0.20000000
  eps_taylor     :   0.10000E-15                  max_taylor     :             4
  ----------------------------------- OT ---------------------------------------

  Step     Update method      Time    Convergence         Total energy    Change
  ------------------------------------------------------------------------------
     1 OT DIIS     0.15E+00    1.1     0.01332027     -1059.3825079557 -1.06E+03
     2 OT DIIS     0.15E+00    1.2     0.00868183     -1073.0837973670 -1.37E+01
     3 OT DIIS     0.15E+00    1.2     0.00608177     -1082.3329449393 -9.25E+00
     4 OT DIIS     0.15E+00    1.2     0.00420419     -1088.9991944739 -6.67E+00
     5 OT DIIS     0.15E+00    1.2     0.00319228     -1092.5975694249 -3.60E+00
     6 OT DIIS     0.15E+00    1.2     0.00242089     -1095.2728736089 -2.68E+00
     7 OT DIIS     0.15E+00    1.2     0.00180823     -1097.1827110188 -1.91E+00
     8 OT DIIS     0.15E+00    1.2     0.00136563     -1098.4047633189 -1.22E+00
     9 OT DIIS     0.15E+00    1.2     0.00107154     -1099.0957253931 -6.91E-01
    10 OT DIIS     0.15E+00    1.2     0.00085958     -1099.5568478897 -4.61E-01
    11 OT DIIS     0.15E+00    1.2     0.00070902     -1099.8674344588 -3.11E-01
    12 OT DIIS     0.15E+00    1.2     0.00059349     -1100.0778291172 -2.10E-01
    13 OT DIIS     0.15E+00    1.2     0.00050949     -1100.2324062136 -1.55E-01
    14 OT DIIS     0.15E+00    1.2     0.00044833     -1100.3361495732 -1.04E-01
    15 OT DIIS     0.15E+00    1.2     0.00039690     -1100.4341573205 -9.80E-02
    16 OT DIIS     0.15E+00    1.2     0.00035862     -1100.5038829258 -6.97E-02
    17 OT DIIS     0.15E+00    1.2     0.00034534     -1100.5572959989 -5.34E-02
    18 OT DIIS     0.15E+00    1.2     0.00034139     -1100.5793052943 -2.20E-02
    19 OT DIIS     0.15E+00    1.2     0.00033463     -1100.5947747725 -1.55E-02
    20 OT SD       0.15E+00    1.2     0.00033658     -1100.6056260666 -1.09E-02
    21 OT DIIS     0.15E+00    1.2     0.00033500     -1100.6167319763 -1.11E-02
    22 OT DIIS     0.15E+00    1.2     0.00032752     -1100.6181772877 -1.45E-03
    23 OT DIIS     0.15E+00    1.2     0.00032184     -1100.6243788064 -6.20E-03
    24 OT DIIS     0.15E+00    1.2     0.00030944     -1100.6371111614 -1.27E-02
    25 OT SD       0.15E+00    1.2     0.00030022     -1100.6455945048 -8.48E-03
    26 OT DIIS     0.15E+00    1.2     0.00029911     -1100.6544335251 -8.84E-03
    27 OT DIIS     0.15E+00    1.2     0.00028894     -1100.6591662825 -4.73E-03
    28 OT SD       0.15E+00    1.2     0.00028473     -1100.6665469324 -7.38E-03
    29 OT SD       0.15E+00    1.2     0.00028442     -1100.6745080801 -7.96E-03
    30 OT SD       0.15E+00    1.2     0.00028480     -1100.6824637367 -7.96E-03
    31 OT SD       0.15E+00    1.2     0.00028544     -1100.6904451527 -7.98E-03
    32 OT DIIS     0.15E+00    1.2     0.00028617     -1100.6984643086 -8.02E-03
    33 OT SD       0.15E+00    1.2     0.00033212     -1100.7435639638 -4.51E-02
    34 OT SD       0.15E+00    1.2     0.00031463     -1100.7540641970 -1.05E-02
    35 OT SD       0.15E+00    1.2     0.00030588     -1100.7636402130 -9.58E-03
    36 OT SD       0.15E+00    1.2     0.00030057     -1100.7727489687 -9.11E-03
    37 OT SD       0.15E+00    1.2     0.00029679     -1100.7815697673 -8.82E-03
    38 OT SD       0.15E+00    1.2     0.00029367     -1100.7901809981 -8.61E-03
    39 OT DIIS     0.15E+00    1.2     0.00029082     -1100.7986166937 -8.44E-03
    40 OT SD       0.15E+00    1.2     0.00016832     -1100.9875398775 -1.89E-01
    41 OT DIIS     0.15E+00    1.2     0.00014749     -1100.9901042397 -2.56E-03
    42 OT DIIS     0.15E+00    1.2     0.00023359     -1100.9860270240  4.08E-03
    43 OT DIIS     0.15E+00    1.2     0.00017591     -1100.9988969377 -1.29E-02
    44 OT DIIS     0.15E+00    1.2     0.00022226     -1101.0010831348 -2.19E-03
    45 OT DIIS     0.15E+00    1.2     0.00015342     -1101.0160500111 -1.50E-02
    46 OT DIIS     0.15E+00    1.2     0.00005874     -1101.0255699554 -9.52E-03
    47 OT DIIS     0.15E+00    1.2     0.00007360     -1101.0255460655  2.39E-05
    48 OT DIIS     0.15E+00    1.2     0.00005773     -1101.0267774770 -1.23E-03
    49 OT DIIS     0.15E+00    1.2     0.00005383     -1101.0275719804 -7.95E-04
    50 OT DIIS     0.15E+00    1.2     0.00004287     -1101.0287889093 -1.22E-03

  Leaving inner SCF loop after reaching    50 steps.


  Electronic density on regular grids:       -512.0000015470       -0.0000015470
  Core density on regular grids:              512.0000000045        0.0000000045
  Total charge density on r-space grids:       -0.0000015425
  Total charge density g-space grids:          -0.0000015425

  Overlap energy of the core charge distribution:               0.00000562599749
  Self energy of the core charge distribution:              -2805.30499493854950
  Core Hamiltonian energy:                                    825.29378519668080
  Hartree energy:                                            1145.26167274262662
  Exchange-correlation energy:                               -266.27925753608491

  Total energy:                                             -1101.02878890932971

 *** WARNING in qs_scf.F:539 :: SCF run NOT converged ***


 ENERGY| Total FORCE_EVAL ( QS ) energy (a.u.):            -1101.031006970462386


 MD_ENERGIES| Initialization proceeding


 ******************************** GO CP2K GO! **********************************
 INITIAL POTENTIAL ENERGY[hartree]     =                     -0.110103100697E+04
 INITIAL KINETIC ENERGY[hartree]       =                      0.272187778755E+00
 INITIAL TEMPERATURE[K]                =                                 300.000
 INITIAL VOLUME[bohr^3]                =                      0.129095421321E+05
 INITIAL CELL LNTHS[bohr]   =      0.2345868E+02   0.2345868E+02   0.2345868E+02
 INITIAL CELL ANGLS[deg]    =      0.9000000E+02   0.9000000E+02   0.9000000E+02
 ******************************** GO CP2K GO! **********************************

 Number of electrons:                                                        512
 Number of occupied orbitals:                                                256
 Number of molecular orbitals:                                               256

 Number of orbital functions:                                               2560
 Number of independent orbital functions:                                   2560

 Extrapolation method: PS Nth order


 SCF WAVEFUNCTION OPTIMIZATION

  ----------------------------------- OT ---------------------------------------
  Minimizer      : DIIS                : direct inversion
                                         in the iterative subspace
                                         using   7 DIIS vectors
                                         safer DIIS on
  Preconditioner : FULL_KINETIC        : inversion of T + eS
  Precond_solver : DEFAULT
  stepsize       :    0.15000000                  energy_gap     :    0.20000000
  eps_taylor     :   0.10000E-15                  max_taylor     :             4
  ----------------------------------- OT ---------------------------------------

  Step     Update method      Time    Convergence         Total energy    Change
  ------------------------------------------------------------------------------
     1 OT DIIS     0.15E+00    1.0     0.00024949     -1101.0278031973 -1.10E+03
     2 OT DIIS     0.15E+00    1.1     0.00016075     -1101.0327091507 -4.91E-03
     3 OT DIIS     0.15E+00    1.1     0.00009050     -1101.0362863174 -3.58E-03
     4 OT DIIS     0.15E+00    1.1     0.00006199     -1101.0377277257 -1.44E-03
     5 OT DIIS     0.15E+00    1.1     0.00003797     -1101.0386877894 -9.60E-04
     6 OT DIIS     0.15E+00    1.1     0.00002205     -1101.0391017619 -4.14E-04
     7 OT DIIS     0.15E+00    1.1     0.00001260     -1101.0392355450 -1.34E-04
     8 OT DIIS     0.15E+00    1.1     0.00000723     -1101.0392767826 -4.12E-05

  *** SCF run converged in     8 steps ***


  Electronic density on regular grids:       -512.0000014905       -0.0000014905
  Core density on regular grids:              511.9999999975       -0.0000000025
  Total charge density on r-space grids:       -0.0000014931
  Total charge density g-space grids:          -0.0000014931

  Overlap energy of the core charge distribution:               0.00000554074590
  Self energy of the core charge distribution:              -2805.30499493854950
  Core Hamiltonian energy:                                    824.99709670363234
  Hartree energy:                                            1145.47089243723713
  Exchange-correlation energy:                               -266.20227652568127

  Total energy:                                             -1101.03927678261562

 ENERGY| Total FORCE_EVAL ( QS ) energy (a.u.):            -1101.039289563990678


 *******************************************************************************
 ENSEMBLE TYPE                =                                              NVE
 STEP NUMBER                  =                                                1
 TIME [fs]                    =                                         0.500000
 CONSERVED QUANTITY [hartree] =                              -0.110076554067E+04

                                              INSTANTANEOUS             AVERAGES
 CPU TIME [s]                 =                       71.80                71.80
 ENERGY DRIFT PER ATOM [K]    =         -0.110545480396E+02   0.000000000000E+00
 POTENTIAL ENERGY[hartree]    =         -0.110103928956E+04  -0.110103928956E+04
 KINETIC ENERGY [hartree]     =          0.273748891514E+00   0.273748891514E+00
 TEMPERATURE [K]              =                     301.721              301.721
 *******************************************************************************


 Number of electrons:                                                        512
 Number of occupied orbitals:                                                256
 Number of molecular orbitals:                                               256

 Number of orbital functions:                                               2560
 Number of independent orbital functions:                                   2560

 Extrapolation method: PS Nth order


 SCF WAVEFUNCTION OPTIMIZATION

  ----------------------------------- OT ---------------------------------------
  Minimizer      : DIIS                : direct inversion
                                         in the iterative subspace
                                         using   7 DIIS vectors
                                         safer DIIS on
  Preconditioner : FULL_KINETIC        : inversion of T + eS
  Precond_solver : DEFAULT
  stepsize       :    0.15000000                  energy_gap     :    0.20000000
  eps_taylor     :   0.10000E-15                  max_taylor     :             4
  ----------------------------------- OT ---------------------------------------

  Step     Update method      Time    Convergence         Total energy    Change
  ------------------------------------------------------------------------------
     1 OT DIIS     0.15E+00    1.0     0.00018187     -1101.0453213820 -1.10E+03
     2 OT DIIS     0.15E+00    1.1     0.00012503     -1101.0480054190 -2.68E-03
     3 OT DIIS     0.15E+00    1.1     0.00007517     -1101.0503828144 -2.38E-03
     4 OT DIIS     0.15E+00    1.1     0.00005150     -1101.0514777105 -1.09E-03
     5 OT DIIS     0.15E+00    1.1     0.00002882     -1101.0522243706 -7.47E-04
     6 OT DIIS     0.15E+00    1.1     0.00001712     -1101.0524515284 -2.27E-04
     7 OT DIIS     0.15E+00    1.1     0.00000972     -1101.0525297372 -7.82E-05

  *** SCF run converged in     7 steps ***


  Electronic density on regular grids:       -512.0000014194       -0.0000014194
  Core density on regular grids:              511.9999999954       -0.0000000046
  Total charge density on r-space grids:       -0.0000014240
  Total charge density g-space grids:          -0.0000014240

  Overlap energy of the core charge distribution:               0.00000508717620
  Self energy of the core charge distribution:              -2805.30499493854950
  Core Hamiltonian energy:                                    823.99099498801615
  Hartree energy:                                            1146.19319011613379
  Exchange-correlation energy:                               -265.93172499001537

  Total energy:                                             -1101.05252973723873

 ENERGY| Total FORCE_EVAL ( QS ) energy (a.u.):            -1101.052553905903096


 *******************************************************************************
 ENSEMBLE TYPE                =                                              NVE
 STEP NUMBER                  =                                                2
 TIME [fs]                    =                                         1.000000
 CONSERVED QUANTITY [hartree] =                              -0.110076574941E+04

                                              INSTANTANEOUS             AVERAGES
 CPU TIME [s]                 =                       10.14                40.97
 ENERGY DRIFT PER ATOM [K]    =         -0.113978552747E+02  -0.569892763737E+01
 POTENTIAL ENERGY[hartree]    =         -0.110105255391E+04  -0.110104592173E+04
 KINETIC ENERGY [hartree]     =          0.286804492827E+00   0.280276692170E+00
 TEMPERATURE [K]              =                     316.110              308.915
 *******************************************************************************


 Number of electrons:                                                        512
 Number of occupied orbitals:                                                256
 Number of molecular orbitals:                                               256

 Number of orbital functions:                                               2560
 Number of independent orbital functions:                                   2560

 Extrapolation method: PS Nth order


 SCF WAVEFUNCTION OPTIMIZATION

  ----------------------------------- OT ---------------------------------------
  Minimizer      : DIIS                : direct inversion
                                         in the iterative subspace
                                         using   7 DIIS vectors
                                         safer DIIS on
  Preconditioner : FULL_KINETIC        : inversion of T + eS
  Precond_solver : DEFAULT
  stepsize       :    0.15000000                  energy_gap     :    0.20000000
  eps_taylor     :   0.10000E-15                  max_taylor     :             4
  ----------------------------------- OT ---------------------------------------

  Step     Update method      Time    Convergence         Total energy    Change
  ------------------------------------------------------------------------------
     1 OT DIIS     0.15E+00    1.0     0.00016599     -1101.0673401807 -1.10E+03
     2 OT DIIS     0.15E+00    1.1     0.00011755     -1101.0696106473 -2.27E-03
     3 OT DIIS     0.15E+00    1.1     0.00007010     -1101.0718403937 -2.23E-03
     4 OT DIIS     0.15E+00    1.1     0.00004686     -1101.0728159792 -9.76E-04
     5 OT DIIS     0.15E+00    1.2     0.00002506     -1101.0734352745 -6.19E-04
     6 OT DIIS     0.15E+00    1.1     0.00001526     -1101.0735929641 -1.58E-04
     7 OT DIIS     0.15E+00    1.1     0.00000857     -1101.0736544803 -6.15E-05

  *** SCF run converged in     7 steps ***


  Electronic density on regular grids:       -512.0000013333       -0.0000013333
  Core density on regular grids:              511.9999999979       -0.0000000021
  Total charge density on r-space grids:       -0.0000013354
  Total charge density g-space grids:          -0.0000013354

  Overlap energy of the core charge distribution:               0.00000421676059
  Self energy of the core charge distribution:              -2805.30499493854950
  Core Hamiltonian energy:                                    822.43891721572595
  Hartree energy:                                            1147.30180931059977
  Exchange-correlation energy:                               -265.50939028485419

  Total energy:                                             -1101.07365448031715

 ENERGY| Total FORCE_EVAL ( QS ) energy (a.u.):            -1101.073673404310739


 *******************************************************************************
 ENSEMBLE TYPE                =                                              NVE
 STEP NUMBER                  =                                                3
 TIME [fs]                    =                                         1.500000
 CONSERVED QUANTITY [hartree] =                              -0.110076623801E+04

                                              INSTANTANEOUS             AVERAGES
 CPU TIME [s]                 =                       10.21                30.72
 ENERGY DRIFT PER ATOM [K]    =         -0.122014238776E+02  -0.786642638413E+01
 POTENTIAL ENERGY[hartree]    =         -0.110107367340E+04  -0.110105517229E+04
 KINETIC ENERGY [hartree]     =          0.307435398585E+00   0.289329594309E+00
 TEMPERATURE [K]              =                     338.849              318.893
 *******************************************************************************


 Number of electrons:                                                        512
 Number of occupied orbitals:                                                256
 Number of molecular orbitals:                                               256

 Number of orbital functions:                                               2560
 Number of independent orbital functions:                                   2560

 Extrapolation method: PS Nth order


 SCF WAVEFUNCTION OPTIMIZATION

  ----------------------------------- OT ---------------------------------------
  Minimizer      : DIIS                : direct inversion
                                         in the iterative subspace
                                         using   7 DIIS vectors
                                         safer DIIS on
  Preconditioner : FULL_KINETIC        : inversion of T + eS
  Precond_solver : DEFAULT
  stepsize       :    0.15000000                  energy_gap     :    0.20000000
  eps_taylor     :   0.10000E-15                  max_taylor     :             4
  ----------------------------------- OT ---------------------------------------

  Step     Update method      Time    Convergence         Total energy    Change
  ------------------------------------------------------------------------------
     1 OT DIIS     0.15E+00    1.0     0.00016900     -1101.0882815790 -1.10E+03
     2 OT DIIS     0.15E+00    1.1     0.00012004     -1101.0906392119 -2.36E-03
     3 OT DIIS     0.15E+00    1.1     0.00006991     -1101.0929761670 -2.34E-03
     4 OT DIIS     0.15E+00    1.1     0.00004370     -1101.0939498196 -9.74E-04
     5 OT DIIS     0.15E+00    1.1     0.00002172     -1101.0944515377 -5.02E-04
     6 OT DIIS     0.15E+00    1.1     0.00001364     -1101.0945537971 -1.02E-04
     7 OT DIIS     0.15E+00    1.1     0.00000750     -1101.0946004838 -4.67E-05

  *** SCF run converged in     7 steps ***


  Electronic density on regular grids:       -512.0000012177       -0.0000012177
  Core density on regular grids:              512.0000000002        0.0000000002
  Total charge density on r-space grids:       -0.0000012176
  Total charge density g-space grids:          -0.0000012176

  Overlap energy of the core charge distribution:               0.00000308048338
  Self energy of the core charge distribution:              -2805.30499493854950
  Core Hamiltonian energy:                                    820.48664268916446
  Hartree energy:                                            1148.70443612234544
  Exchange-correlation energy:                               -264.98068743720501

  Total energy:                                             -1101.09460048376104

 ENERGY| Total FORCE_EVAL ( QS ) energy (a.u.):            -1101.094614859847752


 *******************************************************************************
 ENSEMBLE TYPE                =                                              NVE
 STEP NUMBER                  =                                                4
 TIME [fs]                    =                                         2.000000
 CONSERVED QUANTITY [hartree] =                              -0.110076681835E+04

                                              INSTANTANEOUS             AVERAGES
 CPU TIME [s]                 =                       10.26                25.60
 ENERGY DRIFT PER ATOM [K]    =         -0.131558945815E+02  -0.918879343346E+01
 POTENTIAL ENERGY[hartree]    =         -0.110109461486E+04  -0.110106503293E+04
 KINETIC ENERGY [hartree]     =          0.327796508688E+00   0.298946322904E+00
 TEMPERATURE [K]              =                     361.291              329.493
 *******************************************************************************


 Number of electrons:                                                        512
 Number of occupied orbitals:                                                256
 Number of molecular orbitals:                                               256

 Number of orbital functions:                                               2560
 Number of independent orbital functions:                                   2560

 Extrapolation method: PS Nth order


 SCF WAVEFUNCTION OPTIMIZATION

  ----------------------------------- OT ---------------------------------------
  Minimizer      : DIIS                : direct inversion
                                         in the iterative subspace
                                         using   7 DIIS vectors
                                         safer DIIS on
  Preconditioner : FULL_KINETIC        : inversion of T + eS
  Precond_solver : DEFAULT
  stepsize       :    0.15000000                  energy_gap     :    0.20000000
  eps_taylor     :   0.10000E-15                  max_taylor     :             4
  ----------------------------------- OT ---------------------------------------

  Step     Update method      Time    Convergence         Total energy    Change
  ------------------------------------------------------------------------------
     1 OT DIIS     0.15E+00    1.0     0.00006426     -1101.1044110236 -1.10E+03
     2 OT DIIS     0.15E+00    1.1     0.00005315     -1101.1047787984 -3.68E-04
     3 OT DIIS     0.15E+00    1.1     0.00003232     -1101.1054483798 -6.70E-04
     4 OT DIIS     0.15E+00    1.1     0.00002194     -1101.1057147872 -2.66E-04
     5 OT DIIS     0.15E+00    1.1     0.00001212     -1101.1058730945 -1.58E-04
     6 OT DIIS     0.15E+00    1.2     0.00000783     -1101.1059135973 -4.05E-05

  *** SCF run converged in     6 steps ***


  Electronic density on regular grids:       -512.0000010688       -0.0000010688
  Core density on regular grids:              511.9999999989       -0.0000000011
  Total charge density on r-space grids:       -0.0000010699
  Total charge density g-space grids:          -0.0000010699

  Overlap energy of the core charge distribution:               0.00000200945111
  Self energy of the core charge distribution:              -2805.30499493854950
  Core Hamiltonian energy:                                    818.39013739169150
  Hartree energy:                                            1150.21806252094893
  Exchange-correlation energy:                               -264.40912058080607

  Total energy:                                             -1101.10591359726391

 ENERGY| Total FORCE_EVAL ( QS ) energy (a.u.):            -1101.105932128857603


 *******************************************************************************
 ENSEMBLE TYPE                =                                              NVE
 STEP NUMBER                  =                                                5
 TIME [fs]                    =                                         2.500000
 CONSERVED QUANTITY [hartree] =                              -0.110076715532E+04

                                              INSTANTANEOUS             AVERAGES
 CPU TIME [s]                 =                        9.12                22.31
 ENERGY DRIFT PER ATOM [K]    =         -0.137100855062E+02  -0.100930518480E+02
 POTENTIAL ENERGY[hartree]    =         -0.110110593213E+04  -0.110107321277E+04
 KINETIC ENERGY [hartree]     =          0.338776813796E+00   0.306912421082E+00
 TEMPERATURE [K]              =                     373.393              338.273
 *******************************************************************************


 Number of electrons:                                                        512
 Number of occupied orbitals:                                                256
 Number of molecular orbitals:                                               256

 Number of orbital functions:                                               2560
 Number of independent orbital functions:                                   2560

 Extrapolation method: PS Nth order


 SCF WAVEFUNCTION OPTIMIZATION

  ----------------------------------- OT ---------------------------------------
  Minimizer      : DIIS                : direct inversion
                                         in the iterative subspace
                                         using   7 DIIS vectors
                                         safer DIIS on
  Preconditioner : FULL_KINETIC        : inversion of T + eS
  Precond_solver : DEFAULT
  stepsize       :    0.15000000                  energy_gap     :    0.20000000
  eps_taylor     :   0.10000E-15                  max_taylor     :             4
  ----------------------------------- OT ---------------------------------------

  Step     Update method      Time    Convergence         Total energy    Change
  ------------------------------------------------------------------------------
     1 OT DIIS     0.15E+00    1.0     0.00004706     -1101.1011339815 -1.10E+03
     2 OT DIIS     0.15E+00    1.1     0.00003814     -1101.1013293809 -1.95E-04
     3 OT DIIS     0.15E+00    1.1     0.00002079     -1101.1016568934 -3.28E-04
     4 OT DIIS     0.15E+00    1.1     0.00001223     -1101.1017643462 -1.07E-04
     5 OT DIIS     0.15E+00    1.1     0.00000730     -1101.1018023382 -3.80E-05

  *** SCF run converged in     5 steps ***


  Electronic density on regular grids:       -512.0000009008       -0.0000009008
  Core density on regular grids:              511.9999999941       -0.0000000059
  Total charge density on r-space grids:       -0.0000009067
  Total charge density g-space grids:          -0.0000009067

  Overlap energy of the core charge distribution:               0.00000123724779
  Self energy of the core charge distribution:              -2805.30499493854950
  Core Hamiltonian energy:                                    816.35636953440780
  Hartree energy:                                            1151.70037309182430
  Exchange-correlation energy:                               -263.85355126309571

  Total energy:                                             -1101.10180233816527

 ENERGY| Total FORCE_EVAL ( QS ) energy (a.u.):            -1101.101815178018569


 *******************************************************************************
 ENSEMBLE TYPE                =                                              NVE
 STEP NUMBER                  =                                                6
 TIME [fs]                    =                                         3.000000
 CONSERVED QUANTITY [hartree] =                              -0.110076702437E+04

                                              INSTANTANEOUS             AVERAGES
 CPU TIME [s]                 =                        7.92                19.91
 ENERGY DRIFT PER ATOM [K]    =         -0.134947246689E+02  -0.106599973182E+02
 POTENTIAL ENERGY[hartree]    =         -0.110110181518E+04  -0.110107797984E+04
 KINETIC ENERGY [hartree]     =          0.334790808494E+00   0.311558818984E+00
 TEMPERATURE [K]              =                     369.000              343.394
 *******************************************************************************


 Number of electrons:                                                        512
 Number of occupied orbitals:                                                256
 Number of molecular orbitals:                                               256

 Number of orbital functions:                                               2560
 Number of independent orbital functions:                                   2560

 Extrapolation method: PS Nth order


 SCF WAVEFUNCTION OPTIMIZATION

  ----------------------------------- OT ---------------------------------------
  Minimizer      : DIIS                : direct inversion
                                         in the iterative subspace
                                         using   7 DIIS vectors
                                         safer DIIS on
  Preconditioner : FULL_KINETIC        : inversion of T + eS
  Precond_solver : DEFAULT
  stepsize       :    0.15000000                  energy_gap     :    0.20000000
  eps_taylor     :   0.10000E-15                  max_taylor     :             4
  ----------------------------------- OT ---------------------------------------

  Step     Update method      Time    Convergence         Total energy    Change
  ------------------------------------------------------------------------------
     1 OT DIIS     0.15E+00    1.0     0.00004011     -1101.0829342809 -1.10E+03
     2 OT DIIS     0.15E+00    1.1     0.00003295     -1101.0830775657 -1.43E-04
     3 OT DIIS     0.15E+00    1.1     0.00001490     -1101.0833518754 -2.74E-04
     4 OT DIIS     0.15E+00    1.1     0.00000897     -1101.0834071080 -5.52E-05

  *** SCF run converged in     4 steps ***


  Electronic density on regular grids:       -512.0000007415       -0.0000007415
  Core density on regular grids:              511.9999999906       -0.0000000094
  Total charge density on r-space grids:       -0.0000007508
  Total charge density g-space grids:          -0.0000007508

  Overlap energy of the core charge distribution:               0.00000077877949
  Self energy of the core charge distribution:              -2805.30499493854950
  Core Hamiltonian energy:                                    814.58618751195672
  Hartree energy:                                            1153.00177219571310
  Exchange-correlation energy:                               -263.36637265588331

  Total energy:                                             -1101.08340710798348

 ENERGY| Total FORCE_EVAL ( QS ) energy (a.u.):            -1101.083423184810272


 *******************************************************************************
 ENSEMBLE TYPE                =                                              NVE
 STEP NUMBER                  =                                                7
 TIME [fs]                    =                                         3.500000
 CONSERVED QUANTITY [hartree] =                              -0.110076647588E+04

                                              INSTANTANEOUS             AVERAGES
 CPU TIME [s]                 =                        6.77                18.03
 ENERGY DRIFT PER ATOM [K]    =         -0.125926400406E+02  -0.109360891356E+02
 POTENTIAL ENERGY[hartree]    =         -0.110108342318E+04  -0.110107875746E+04
 KINETIC ENERGY [hartree]     =          0.316947308490E+00   0.312328603199E+00
 TEMPERATURE [K]              =                     349.333              344.242
 *******************************************************************************


 Number of electrons:                                                        512
 Number of occupied orbitals:                                                256
 Number of molecular orbitals:                                               256

 Number of orbital functions:                                               2560
 Number of independent orbital functions:                                   2560

 Extrapolation method: PS Nth order


 SCF WAVEFUNCTION OPTIMIZATION

  ----------------------------------- OT ---------------------------------------
  Minimizer      : DIIS                : direct inversion
                                         in the iterative subspace
                                         using   7 DIIS vectors
                                         safer DIIS on
  Preconditioner : FULL_KINETIC        : inversion of T + eS
  Precond_solver : DEFAULT
  stepsize       :    0.15000000                  energy_gap     :    0.20000000
  eps_taylor     :   0.10000E-15                  max_taylor     :             4
  ----------------------------------- OT ---------------------------------------

  Step     Update method      Time    Convergence         Total energy    Change
  ------------------------------------------------------------------------------
     1 OT DIIS     0.15E+00    1.0     0.00003934     -1101.0575993375 -1.10E+03
     2 OT DIIS     0.15E+00    1.1     0.00003220     -1101.0577372339 -1.38E-04
     3 OT DIIS     0.15E+00    1.1     0.00001302     -1101.0580145434 -2.77E-04
     4 OT DIIS     0.15E+00    1.1     0.00000937     -1101.0580508352 -3.63E-05

  *** SCF run converged in     4 steps ***


  Electronic density on regular grids:       -512.0000006088       -0.0000006088
  Core density on regular grids:              511.9999999927       -0.0000000073
  Total charge density on r-space grids:       -0.0000006162
  Total charge density g-space grids:          -0.0000006162

  Overlap energy of the core charge distribution:               0.00000054143077
  Self energy of the core charge distribution:              -2805.30499493854950
  Core Hamiltonian energy:                                    813.21035139299693
  Hartree energy:                                            1154.02258427295919
  Exchange-correlation energy:                               -262.98599210403233

  Total energy:                                             -1101.05805083519499

 ENERGY| Total FORCE_EVAL ( QS ) energy (a.u.):            -1101.058072647106883


 *******************************************************************************
 ENSEMBLE TYPE                =                                              NVE
 STEP NUMBER                  =                                                8
 TIME [fs]                    =                                         4.000000
 CONSERVED QUANTITY [hartree] =                              -0.110076580471E+04

                                              INSTANTANEOUS             AVERAGES
 CPU TIME [s]                 =                        6.78                16.62
 ENERGY DRIFT PER ATOM [K]    =         -0.114888015961E+02  -0.110051781932E+02
 POTENTIAL ENERGY[hartree]    =         -0.110105807265E+04  -0.110107617186E+04
 KINETIC ENERGY [hartree]     =          0.292267936071E+00   0.309821019808E+00
 TEMPERATURE [K]              =                     322.132              341.479
 *******************************************************************************


 Number of electrons:                                                        512
 Number of occupied orbitals:                                                256
 Number of molecular orbitals:                                               256

 Number of orbital functions:                                               2560
 Number of independent orbital functions:                                   2560

 Extrapolation method: PS Nth order


 SCF WAVEFUNCTION OPTIMIZATION

  ----------------------------------- OT ---------------------------------------
  Minimizer      : DIIS                : direct inversion
                                         in the iterative subspace
                                         using   7 DIIS vectors
                                         safer DIIS on
  Preconditioner : FULL_KINETIC        : inversion of T + eS
  Precond_solver : DEFAULT
  stepsize       :    0.15000000                  energy_gap     :    0.20000000
  eps_taylor     :   0.10000E-15                  max_taylor     :             4
  ----------------------------------- OT ---------------------------------------

  Step     Update method      Time    Convergence         Total energy    Change
  ------------------------------------------------------------------------------
     1 OT DIIS     0.15E+00    1.0     0.00004063     -1101.0348904328 -1.10E+03
     2 OT DIIS     0.15E+00    1.1     0.00003307     -1101.0350368938 -1.46E-04
     3 OT DIIS     0.15E+00    1.1     0.00001525     -1101.0353096358 -2.73E-04
     4 OT DIIS     0.15E+00    1.1     0.00001093     -1101.0353590214 -4.94E-05
     5 OT DIIS     0.15E+00    1.1     0.00000786     -1101.0353880728 -2.91E-05

  *** SCF run converged in     5 steps ***


  Electronic density on regular grids:       -512.0000004818       -0.0000004818
  Core density on regular grids:              511.9999999968       -0.0000000032
  Total charge density on r-space grids:       -0.0000004851
  Total charge density g-space grids:          -0.0000004851

  Overlap energy of the core charge distribution:               0.00000043858940
  Self energy of the core charge distribution:              -2805.30499493854950
  Core Hamiltonian energy:                                    812.31303126917601
  Hartree energy:                                            1154.69416749628090
  Exchange-correlation energy:                               -262.73759233825632

  Total energy:                                             -1101.03538807275959

 ENERGY| Total FORCE_EVAL ( QS ) energy (a.u.):            -1101.035410333146046


 *******************************************************************************
 ENSEMBLE TYPE                =                                              NVE
 STEP NUMBER                  =                                                9
 TIME [fs]                    =                                         4.500000
 CONSERVED QUANTITY [hartree] =                              -0.110076529419E+04

                                              INSTANTANEOUS             AVERAGES
 CPU TIME [s]                 =                        7.93                15.66
 ENERGY DRIFT PER ATOM [K]    =         -0.106491655646E+02  -0.109656212345E+02
 POTENTIAL ENERGY[hartree]    =         -0.110103541033E+04  -0.110107164280E+04
 KINETIC ENERGY [hartree]     =          0.270116144786E+00   0.305409367028E+00
 TEMPERATURE [K]              =                     297.717              336.616
 *******************************************************************************


 Number of electrons:                                                        512
 Number of occupied orbitals:                                                256
 Number of molecular orbitals:                                               256

 Number of orbital functions:                                               2560
 Number of independent orbital functions:                                   2560

 Extrapolation method: PS Nth order


 SCF WAVEFUNCTION OPTIMIZATION

  ----------------------------------- OT ---------------------------------------
  Minimizer      : DIIS                : direct inversion
                                         in the iterative subspace
                                         using   7 DIIS vectors
                                         safer DIIS on
  Preconditioner : FULL_KINETIC        : inversion of T + eS
  Precond_solver : DEFAULT
  stepsize       :    0.15000000                  energy_gap     :    0.20000000
  eps_taylor     :   0.10000E-15                  max_taylor     :             4
  ----------------------------------- OT ---------------------------------------

  Step     Update method      Time    Convergence         Total energy    Change
  ------------------------------------------------------------------------------
     1 OT DIIS     0.15E+00    1.0     0.00004272     -1101.0227185823 -1.10E+03
     2 OT DIIS     0.15E+00    1.1     0.00003547     -1101.0228816341 -1.63E-04
     3 OT DIIS     0.15E+00    1.1     0.00001954     -1101.0231905787 -3.09E-04
     4 OT DIIS     0.15E+00    1.1     0.00001351     -1101.0232865832 -9.60E-05
     5 OT DIIS     0.15E+00    1.1     0.00000909     -1101.0233423692 -5.58E-05

  *** SCF run converged in     5 steps ***


  Electronic density on regular grids:       -512.0000003316       -0.0000003316
  Core density on regular grids:              511.9999999981       -0.0000000019
  Total charge density on r-space grids:       -0.0000003335
  Total charge density g-space grids:          -0.0000003335

  Overlap energy of the core charge distribution:               0.00000042270337
  Self energy of the core charge distribution:              -2805.30499493854950
  Core Hamiltonian energy:                                    811.91272338362182
  Hartree energy:                                            1154.99784951715446
  Exchange-correlation energy:                               -262.62892075411423

  Total energy:                                             -1101.02334236918387

 ENERGY| Total FORCE_EVAL ( QS ) energy (a.u.):            -1101.023374986881208


 *******************************************************************************
 ENSEMBLE TYPE                =                                              NVE
 STEP NUMBER                  =                                               10
 TIME [fs]                    =                                         5.000000
 CONSERVED QUANTITY [hartree] =                              -0.110076505584E+04

                                              INSTANTANEOUS             AVERAGES
 CPU TIME [s]                 =                        7.91                14.88
 ENERGY DRIFT PER ATOM [K]    =         -0.102571586496E+02  -0.108947749760E+02
 POTENTIAL ENERGY[hartree]    =         -0.110102337499E+04  -0.110106681602E+04
 KINETIC ENERGY [hartree]     =          0.258319149916E+00   0.300700345317E+00
 TEMPERATURE [K]              =                     284.714              331.426
 *******************************************************************************


 -------------------------------------------------------------------------------
 -                                                                             -
 -                                DBCSR STATISTICS                             -
 -                                                                             -
 -------------------------------------------------------------------------------
 COUNTER                                    TOTAL       BLAS       SMM       ACC
 flops    9 x   32 x   32               207618048       0.0%    100.0%      0.0%
 flops   22 x   32 x   32               253755392       0.0%    100.0%      0.0%
 flops   32 x   64 x   64              3359637504       0.0%    100.0%      0.0%
 flops   96 x   64 x   64             10078912512       0.0%    100.0%      0.0%
 flops   64 x   64 x   64             13438550016       0.0%    100.0%      0.0%
 flops   32 x   64 x  640             17658019840       0.0%    100.0%      0.0%
 flops  578 x   64 x   64             39243481088       0.0%    100.0%      0.0%
 flops  582 x   64 x   64             39515062272       0.0%    100.0%      0.0%
 flops    9 x    9 x   64             44168260608       0.0%    100.0%      0.0%
 flops  698 x   64 x   64             47390916608       0.0%    100.0%      0.0%
 flops  702 x   64 x   64             47662497792       0.0%    100.0%      0.0%
 flops   96 x   64 x  640             52974059520       0.0%    100.0%      0.0%
 flops   22 x    9 x   64             53835724800       0.0%    100.0%      0.0%
 flops    9 x   22 x   64             53885500416       0.0%    100.0%      0.0%
 flops   22 x   22 x   64             67007283200       0.0%    100.0%      0.0%
 flops   64 x   64 x  640             70632079360       0.0%    100.0%      0.0%
 flops  578 x   64 x  640             90153943040       0.0%    100.0%      0.0%
 flops  582 x   64 x  640             90777845760       0.0%    100.0%      0.0%
 flops  698 x   64 x  640            108871024640       0.0%    100.0%      0.0%
 flops  702 x   64 x  640            109494927360       0.0%    100.0%      0.0%
 flops    9 x   32 x    9            185405884416       0.0%    100.0%      0.0%
 flops   22 x   32 x    9            227871249408       0.0%    100.0%      0.0%
 flops    9 x   32 x   22            227871249408       0.0%    100.0%      0.0%
 flops   22 x   32 x   22            279130931200       0.0%    100.0%      0.0%
 flops inhomo. stacks                           0       0.0%      0.0%      0.0%
 flops total                         1.880888E+12       0.0%    100.0%      0.0%
 flops max/rank                    235.585836E+09       0.0%    100.0%      0.0%
 matmuls inhomo. stacks                         0       0.0%      0.0%      0.0%
 matmuls total                           90468644       0.0%    100.0%      0.0%
 number of processed stacks                267008       0.0%    100.0%      0.0%
 average stack size                                     0.0     338.8       0.0
 marketing flops                     2.107587E+12
 -------------------------------------------------------------------------------
 # multiplications                           2286
 max memory usage/rank             310.935552E+06
 # max total images/rank                        2
 # MPI messages exchanged                  164592
 MPI messages size (elements):
  total size                        12.130279E+09
  min size                           0.000000E+00
  max size                         819.200000E+03
  average size                      73.699086E+03
 MPI breakdown and total messages size (bytes):
             size <=      128                1188                        0
       128 < size <=     8192                   0                        0
      8192 < size <=    32768               63444               2076770304
     32768 < size <=   131072               19224               1259864064
    131072 < size <=  4194304               71280              31850496000
   4194304 < size <= 16777216                9456              61855174464
  16777216 < size                               0                        0
 -------------------------------------------------------------------------------

 *** WARNING in dbcsr/mm/dbcsr_mm.F:264 :: Using a non-square number of ***
 *** MPI ranks might lead to poor performance.                          ***
 *** Used ranks: 8                                                      ***
 *** Suggested: 9 16                                                    ***

 -------------------------------------------------------------------------------

 MEMORY| Estimated peak process memory [MiB]                                 297

 -------------------------------------------------------------------------------
 -                                                                             -
 -                         MESSAGE PASSING PERFORMANCE                         -
 -                                                                             -
 -------------------------------------------------------------------------------

 ROUTINE             CALLS      AVE VOLUME [Bytes]
 MP_Group              158
 MP_Bcast             3590                  52530.
 MP_Allreduce        15074                    298.
 MP_Sync                 4
 MP_Alltoall         10248                1238229.
 MP_ISendRecv         4998                 189067.
 MP_Wait            118626
 MP_ISend            55752                 272337.
 MP_IRecv            55752                 272543.
 MP_Memory          136496
 -------------------------------------------------------------------------------


 -------------------------------------------------------------------------------
 -                                                                             -
 -                           R E F E R E N C E S                               -
 -                                                                             -
 -------------------------------------------------------------------------------
 
 CP2K version 5.0 (Development Version), the CP2K developers group (2016).
 CP2K is freely available from https://www.cp2k.org/ .

 Schuett, Ole; Messmer, Peter; Hutter, Juerg; VandeVondele, Joost. 
 Electronic Structure Calculations on Graphics Processing Units, John Wiley & Sons, Ltd, 173-190 (2016). 
 GPU-Accelerated Sparse Matrix-Matrix Multiplication for Linear Scaling Density Functional Theory.
 http://dx.doi.org/10.1002/9781118670712.ch8


 Borstnik, U; VandeVondele, J; Weber, V; Hutter, J. 
 PARALLEL COMPUTING, 40 (5-6), 47-58 (2014). 
 Sparse matrix multiplication: The distributed block-compressed sparse
 row library.
 http://dx.doi.org/10.1016/j.parco.2014.03.012


 Hutter, J; Iannuzzi, M; Schiffmann, F; VandeVondele, J. 
 WILEY INTERDISCIPLINARY REVIEWS-COMPUTATIONAL MOLECULAR SCIENCE, 4 (1), 15-25 (2014). 
 CP2K: atomistic simulations of condensed matter systems.
 http://dx.doi.org/10.1002/wcms.1159


 Krack, M. 
 THEORETICAL CHEMISTRY ACCOUNTS, 114 (1-3), 145-152 (2005). 
 Pseudopotentials for H to Kr optimized for gradient-corrected
 exchange-correlation functionals.
 http://dx.doi.org/10.1007/s00214-005-0655-y


 VandeVondele, J; Krack, M; Mohamed, F; Parrinello, M; Chassaing, T;
 Hutter, J. COMPUTER PHYSICS COMMUNICATIONS, 167 (2), 103-128 (2005). 
 QUICKSTEP: Fast and accurate density functional calculations using a
 mixed Gaussian and plane waves approach.
 http://dx.doi.org/10.1016/j.cpc.2004.12.014


 Frigo, M; Johnson, SG. 
 PROCEEDINGS OF THE IEEE, 93 (2), 216-231 (2005). 
 The design and implementation of FFTW3.
 http://dx.doi.org/10.1109/JPROC.2004.840301


 VandeVondele, J; Hutter, J. 
 JOURNAL OF CHEMICAL PHYSICS, 118 (10), 4365-4369 (2003). 
 An efficient orbital transformation method for electronic structure
 calculations.
 http://dx.doi.org/10.1063/1.1543154


 Hartwigsen, C; Goedecker, S; Hutter, J. 
 PHYSICAL REVIEW B, 58 (7), 3641-3662 (1998). 
 Relativistic separable dual-space Gaussian pseudopotentials from H to Rn.
 http://dx.doi.org/10.1103/PhysRevB.58.3641


 Lippert, G; Hutter, J; Parrinello, M. 
 MOLECULAR PHYSICS, 92 (3), 477-487 (1997). 
 A hybrid Gaussian and plane wave density functional scheme.
 http://dx.doi.org/10.1080/002689797170220


 Goedecker, S; Teter, M; Hutter, J. 
 PHYSICAL REVIEW B, 54 (3), 1703-1710 (1996). 
 Separable dual-space Gaussian pseudopotentials.
 http://dx.doi.org/10.1103/PhysRevB.54.1703


 -------------------------------------------------------------------------------
 -                                                                             -
 -                                T I M I N G                                  -
 -                                                                             -
 -------------------------------------------------------------------------------
 SUBROUTINE                       CALLS  ASD         SELF TIME        TOTAL TIME
                                MAXIMUM       AVERAGE  MAXIMUM  AVERAGE  MAXIMUM
 CP2K                                 1  1.0    0.683    0.711  149.792  149.793
 qs_mol_dyn_low                       1  2.0    0.005    0.005  148.860  148.865
 qs_forces                           11  3.9    0.002    0.002  148.804  148.804
 qs_energies                         11  4.9    0.003    0.003  138.707  138.711
 scf_env_do_scf                      11  5.9    0.001    0.002  127.765  127.765
 scf_env_do_scf_inner_loop          108  6.5    0.012    0.067  118.866  118.866
 velocity_verlet                     10  3.0    0.001    0.001   88.307   88.311
 rebuild_ks_matrix                  119  8.3    0.001    0.001   62.906   62.952
 qs_ks_build_kohn_sham_matrix       119  9.3    0.015    0.017   62.905   62.952
 qs_ks_update_qs_env                119  7.6    0.001    0.001   56.238   56.283
 qs_rho_update_rho                  119  7.7    0.001    0.001   55.125   55.143
 calculate_rho_elec                 119  8.7   46.642   47.183   55.124   55.141
 sum_up_and_integrate               119 10.3    0.099    0.100   52.228   52.272
 integrate_v_rspace                 119 11.3   45.966   46.393   52.129   52.172
 dbcsr_multiply_generic            2286 12.5    0.116    0.117   24.518   24.567
 qs_scf_new_mos                     108  7.5    0.001    0.001   18.360   18.402
 qs_scf_loop_do_ot                  108  8.5    0.001    0.001   18.359   18.401
 multiply_cannon                   2286 13.5    0.253    0.260   17.208   17.329
 ot_scf_mini                        108  9.5    0.005    0.005   16.329   16.353
 multiply_cannon_multrec           9144 14.5   14.386   14.638   14.401   14.654
 pw_transfer                       1439 11.6    0.066    0.082   10.531   10.703
 fft_wrap_pw1pw2                   1201 12.6    0.009    0.012   10.090   10.246
 fft_wrap_pw1pw2_140                487 13.2    0.913    0.943    9.355    9.527
 init_scf_loop                       11  6.9    0.002    0.003    8.873    8.873
 ot_mini                            108 10.5    0.001    0.001    8.824    8.849
 init_scf_run                        11  5.9    0.000    0.001    7.527    7.527
 scf_env_initial_rho_setup           11  6.9    0.001    0.001    7.527    7.527
 density_rs2pw                      119  9.7    0.006    0.006    6.839    7.416
 fft3d_ps                          1201 14.6    4.792    4.819    7.166    7.296
 qs_ks_update_qs_env_forces          11  4.9    0.000    0.000    6.984    6.992
 wfi_extrapolate                     11  7.9    0.001    0.002    6.723    6.723
 make_m2s                          4572 13.5    0.076    0.077    5.484    5.553
 apply_preconditioner_dbcsr         119 12.6    0.000    0.000    4.693    4.733
 apply_single                       119 13.6    0.000    0.000    4.693    4.733
 ot_diis_step                       108 11.5    0.008    0.008    4.705    4.705
 potential_pw2rs                    119 12.3    0.012    0.013    4.559    4.565
 make_images                       4572 14.5    0.747    0.951    4.324    4.405
 qs_ot_get_derivative               108 11.5    0.001    0.001    4.112    4.137
 rs_pw_transfer                     974 11.9    0.010    0.011    3.435    3.967
 build_core_hamiltonian_matrix_      11  4.9    0.000    0.001    3.017    3.084
 qs_energies_init_hamiltonians       11  5.9    0.003    0.003    2.993    2.993
 prepare_preconditioner              11  7.9    0.000    0.000    2.570    2.579
 make_preconditioner                 11  8.9    0.001    0.001    2.570    2.579
 rs_distribute_matrix               249 10.9    0.573    0.609    1.988    2.439
 mp_waitall_1                    115506 16.1    1.724    2.383    1.724    2.383
 make_full_inverse_cholesky          11  9.9    0.000    0.001    2.298    2.341
 calculate_dm_sparse                119  9.5    0.001    0.001    2.274    2.310
 make_images_data                  4572 15.5    0.053    0.055    1.860    1.931
 qs_ot_get_p                        119 10.4    0.002    0.002    1.870    1.926
 hybrid_alltoall_any               4725 16.4    0.570    1.305    1.772    1.884
 cp_dbcsr_sm_fm_multiply             37  9.5    0.002    0.002    1.825    1.827
 rs_pw_transfer_RS2PW_140           130 11.5    0.508    0.547    1.302    1.824
 build_core_ppl_forces               11  5.9    1.693    1.764    1.693    1.764
 dbcsr_finalize                    5856 13.6    0.037    0.038    1.661    1.737
 dbcsr_merge_all                   5242 14.8    0.629    0.662    1.589    1.665
 mp_waitany                        3120 13.7    1.074    1.644    1.074    1.644
 cp_dbcsr_sm_fm_multiply_core        37 10.5    0.000    0.000    1.621    1.634
 mp_alltoall_d11v                  2141 13.8    1.167    1.632    1.167    1.632
 build_core_hamiltonian_matrix       11  6.9    0.002    0.003    1.553    1.585
 rs_pw_transfer_PW2RS_140           130 13.9    0.912    0.929    1.530    1.534
 qs_env_update_s_mstruct             11  6.9    0.001    0.001    1.378    1.428
 qs_vxc_create                      119 10.3    0.003    0.003    1.242    1.359
 xc_vxc_pw_create                   119 11.3    0.117    0.119    1.239    1.355
 x_to_yz                            595 16.2    0.835    0.875    1.273    1.338
 qs_ot_get_derivative_diag           49 12.0    0.002    0.002    1.255    1.282
 qs_ot_get_derivative_taylor         59 13.0    0.002    0.002    1.234    1.248
 pw_poisson_solve                   119 10.3    0.830    0.832    1.226    1.226
 make_images_pack                  4572 15.5    1.137    1.203    1.152    1.217
 buffer_matrices_ensure_size       4572 14.5    1.174    1.178    1.186    1.191
 yz_to_x                            606 15.1    0.622    0.638    1.082    1.190
 dbcsr_make_dense_low              7826 15.6    0.050    0.050    1.084    1.097
 mp_alltoall_z22v                  1201 16.6    0.898    1.088    0.898    1.088
 cp_fm_cholesky_invert               11 10.9    1.077    1.079    1.077    1.079
 pw_gather_p                        606 14.1    1.036    1.077    1.036    1.077
 xc_rho_set_and_dset_create         119 12.3    0.004    0.004    1.014    1.047
 make_dense_data                   7826 16.6    0.970    0.983    1.008    1.022
 build_core_ppl                      11  7.9    0.965    0.999    0.965    0.999
 dbcsr_make_images_dense           3978 14.8    0.035    0.036    0.985    0.999
 xc_functional_eval                 119 13.3    0.948    0.983    0.948    0.983
 qs_create_task_list                 11  7.9    0.001    0.001    0.969    0.970
 generate_qs_task_list               11  8.9    0.586    0.612    0.967    0.969
 pw_scatter_p                       595 15.2    0.872    0.888    0.872    0.888
 qs_ot_p2m_diag                      50 11.0    0.052    0.054    0.879    0.880
 qs_ot_get_orbitals                 108 10.5    0.001    0.001    0.870    0.872
 mp_sum_d                          4131 11.9    0.442    0.834    0.442    0.834
 dbcsr_complete_redistribute        329 12.2    0.328    0.350    0.766    0.794
 pw_copy                            952 12.7    0.726    0.748    0.726    0.748
 cp_dbcsr_syevd                      50 12.0    0.003    0.003    0.699    0.699
 fft_wrap_pw1pw2_50                 238 14.0    0.074    0.086    0.568    0.698
 copy_dbcsr_to_fm                   153 11.3    0.003    0.003    0.662    0.677
 cp_fm_syevd                         50 13.0    0.000    0.000    0.665    0.665
 cp_fm_syevd_base                    50 14.0    0.664    0.665    0.664    0.665
 make_basis_sm                       11  9.8    0.001    0.001    0.628    0.629
 build_overlap_matrix                22  6.9    0.346    0.350    0.620    0.627
 dbcsr_trace_a_b_d                 1205 11.9    0.397    0.402    0.569    0.620
 rs_grid_zero                       617 10.8    0.596    0.619    0.596    0.619
 dbcsr_copy                        2232 11.8    0.027    0.028    0.579    0.592
 build_kinetic_matrix                22  6.9    0.553    0.560    0.574    0.581
 reorthogonalize_vectors             10  9.0    0.000    0.000    0.552    0.553
 cp_fm_cholesky_decompose            22 10.9    0.531    0.538    0.531    0.538
 build_core_ppnl_forces              11  5.9    0.497    0.524    0.497    0.524
 ot_scf_init                         11  7.9    0.002    0.002    0.505    0.508
 dbcsr_data_copyall               52830  9.0    0.493    0.506    0.493    0.506
 transfer_dbcsr_to_fm                11 10.9    0.000    0.000    0.479    0.491
 cp_dbcsr_plus_fm_fm_t_native        22  8.9    0.001    0.001    0.483    0.487
 copy_fm_to_dbcsr                   176 11.2    0.002    0.002    0.457    0.485
 mp_sum_l                          4040 13.7    0.367    0.445    0.367    0.445
 dbcsr_data_copy_aa2               3164 15.2    0.420    0.445    0.420    0.445
 calculate_rho_core                  11  7.9    0.038    0.041    0.388    0.440
 tree_to_linear_d                  1073 14.6    0.400    0.428    0.400    0.428
 distribute_tasks                    11  9.9    0.118    0.120    0.381    0.411
 pw_axpy                            595 10.6    0.397    0.410    0.397    0.410
 qs_energies_compute_matrix_w        11  5.9    0.000    0.000    0.354    0.357
 calculate_w_matrix_ot               11  6.9    0.001    0.001    0.354    0.357
 evaluate_core_matrix_traces        119  8.3    0.000    0.001    0.315    0.322
 calculate_ptrace_kp                238  9.3    0.001    0.001    0.314    0.322
 dbcsr_create_new                 32468 15.0    0.168    0.170    0.306    0.308
 multiply_cannon_metrocomm2       13716 14.5    0.042    0.044    0.284    0.308
 calculate_first_density_matrix       1  7.0    0.002    0.002    0.294    0.295
 transfer_fm_to_dbcsr                11  9.9    0.000    0.000    0.255    0.282
 mp_irecv_dv                      28946 15.7    0.241    0.277    0.241    0.277
 cp_gemm                             81  9.0    0.000    0.000    0.273    0.275
 cp_gemm_fm_gemm                     81 10.0    0.000    0.000    0.272    0.275
 cp_fm_gemm                          81 11.0    0.272    0.275    0.272    0.275
 rs_pw_transfer_RS2PW_50            119 11.7    0.167    0.175    0.249    0.272
 multiply_cannon_metrocomm3        9144 14.5    0.019    0.020    0.217    0.260
 cp_fm_upper_to_full                 22 12.4    0.221    0.258    0.221    0.258
 multiply_cannon_metrocomm4        6858 14.5    0.022    0.022    0.217    0.255
 make_images_sizes                 4572 15.5    0.005    0.005    0.209    0.254
 dbcsr_special_finalize            6858 15.5    0.015    0.016    0.232    0.254
 mp_alltoall_i44                   4572 16.5    0.204    0.249    0.204    0.249
 overlap_ab                      114217  7.9    0.241    0.246    0.241    0.246
 dbcsr_make_untransposed_blocks    2729 13.4    0.181    0.232    0.192    0.242
 mp_isend_dv                      28427 15.7    0.216    0.226    0.216    0.226
 dbcsr_add_wm_from_matrix           443 12.9    0.025    0.052    0.218    0.224
 rs_pw_transfer_PW2RS_50            119 14.3    0.152    0.156    0.218    0.224
 dbcsr_make_dense                  1859 13.9    0.009    0.009    0.218    0.219
 dbcsr_add_d                       1881 12.8    0.002    0.002    0.204    0.205
 dbcsr_fill_wm_from_matrix          443 13.9    0.189    0.202    0.191    0.204
 dbcsr_add_anytype                 1881 13.8    0.131    0.132    0.202    0.203
 dbcsr_make_undense                1859 13.9    0.168    0.171    0.199    0.203
 arnoldi_extremal                   119 11.4    0.002    0.002    0.187    0.189
 arnoldi_normal_ev                  119 12.4    0.003    0.004    0.185    0.188
 dbcsr_desymmetrize_deep            153 12.3    0.055    0.066    0.173    0.187
 calculate_ecore_overlap             22  5.9    0.001    0.001    0.075    0.187
 dbcsr_sort_indices               12333 16.4    0.154    0.180    0.154    0.180
 mp_allgather_i34                  2286 14.5    0.143    0.180    0.143    0.180
 load_balance_distributed            11 10.9    0.000    0.000    0.150    0.179
 multiply_cannon_metrocomm1        9144 14.5    0.025    0.026    0.121    0.176
 quick_finalize                    6302 16.7    0.038    0.040    0.154    0.175
 compute_load_list                   22 11.9    0.105    0.108    0.147    0.173
 dbcsr_data_release              168418 16.1    0.128    0.137    0.147    0.156
 dbcsr_destroy                    31379 14.2    0.051    0.052    0.146    0.154
 dbcsr_set                         4172 14.9    0.004    0.004    0.152    0.153
 integrate_v_core_rspace             11  7.9    0.023    0.026    0.149    0.151
 dbcsr_zero                        4270 15.8    0.149    0.150    0.149    0.150
 fft_wrap_pw1pw2_20                 238 14.0    0.016    0.017    0.132    0.144
 setup_rec_index_2d                4572 14.5    0.139    0.142    0.139    0.142
 mp_alltoall_i22                    627 13.8    0.110    0.141    0.110    0.141
 qs_init_subsys                       1  2.0    0.012    0.012    0.127    0.127
 merge_index                       5242 15.8    0.120    0.126    0.120    0.126
 get_current_loads                  110 11.7    0.059    0.061    0.093    0.126
 build_core_ppnl                     11  7.9    0.113    0.122    0.113    0.122
 setup_buffer_matrices             4572 14.5    0.031    0.033    0.118    0.122
 build_subspace                     119 13.4    0.007    0.008    0.110    0.110
 qs_env_setup                         1  3.0    0.002    0.002    0.105    0.105
 cp_dbcsr_alloc_block_from_nbl       88  7.7    0.039    0.041    0.100    0.105
 qs_ot_p2m_taylor                    69 11.7    0.001    0.001    0.102    0.102
 dbcsr_matrix_vector_mult          1669 14.0    0.011    0.012    0.098    0.101
 qs_env_rebuild_pw_env               23  5.3    0.001    0.001    0.098    0.098
 dbcsr_data_new                   94971 15.7    0.071    0.072    0.097    0.098
 pw_zero                            119 10.7    0.098    0.098    0.098    0.098
 pw_env_rebuild                       1  5.0    0.003    0.004    0.097    0.097
 create_qs_kind_set                   1  2.0    0.000    0.000    0.088    0.096
 read_qs_kind                         2  3.0    0.017    0.018    0.088    0.096
 dbcsr_mm_multrec_init             2286 14.5    0.005    0.005    0.091    0.093
 dbcsr_reserve_blocks               740 14.3    0.074    0.077    0.085    0.089
 dbcsr_mm_csr_init                 2286 15.5    0.059    0.060    0.087    0.088
 dbcsr_copy_into_existing            22  7.9    0.036    0.036    0.085    0.086
 dbcsr_make_index_exist           32468 16.0    0.070    0.070    0.085    0.085
 dbcsr_new_transposed               954 13.3    0.016    0.017    0.077    0.083
 copy_fm_to_dbcsr_bc                176 12.2    0.050    0.055    0.078    0.083
 parser_read_line                  2671  4.0    0.001    0.001    0.071    0.078
 parser_read_line_low                 4  5.0    0.006    0.044    0.070    0.077
 broadcast_input_information          4  6.0    0.000    0.000    0.064    0.076
 mp_bcast_i                         101  2.8    0.063    0.075    0.063    0.075
 pw_grid_setup                        4  6.0    0.001    0.001    0.072    0.072
 pw_grid_setup_internal               4  7.0    0.003    0.003    0.071    0.071
 mp_alltoall_l                      121 12.6    0.034    0.070    0.034    0.070
 dbcsr_iterator_start             34529 16.0    0.049    0.050    0.065    0.066
 copy_dbcsr_to_fm_bc                153 12.3    0.063    0.064    0.064    0.065
 mp_sum_dm                          438  4.9    0.049    0.060    0.049    0.060
 dbcsr_merge_single_wm              854 14.5    0.008    0.009    0.059    0.060
 rs_pw_transfer_PW2RS_20            119 14.3    0.036    0.037    0.054    0.058
 build_qs_neighbor_lists             11  6.9    0.001    0.002    0.057    0.058
 pw_grid_sort                         4  8.0    0.034    0.036    0.055    0.057
 create_local_tasks                  11 10.9    0.044    0.044    0.054    0.054
 rs_pw_transfer_RS2PW_20            119 11.7    0.033    0.034    0.048    0.050
 dbcsr_make_index_list             6858 14.5    0.044    0.047    0.044    0.047
 dbcsr_iterator_stop              34529 16.0    0.037    0.038    0.045    0.047
 dbcsr_sort_data                    854 15.5    0.044    0.044    0.044    0.044
 mp_bcast_b                        1737 13.6    0.027    0.044    0.027    0.044
 dbcsr_redistribute                 145 14.7    0.009    0.009    0.036    0.041
 cp_fm_triangular_multiply           11 10.8    0.040    0.040    0.040    0.040
 mp_allocate_d                    37194 16.8    0.038    0.039    0.038    0.039
 mp_deallocate_d                  37194 16.7    0.034    0.036    0.034    0.036
 dbcsr_col_vec_to_rep_row          1669 15.0    0.007    0.008    0.031    0.035
 dbcsr_make_dists_dense            1989 13.8    0.027    0.028    0.034    0.035
 md_write_output                     11  3.9    0.003    0.024    0.005    0.034
 arnoldi_init                       119 13.4    0.002    0.003    0.031    0.034
 md_output                           10  3.0    0.000    0.000    0.006    0.034
 cp_fm_create                       225 11.7    0.031    0.033    0.031    0.033
 load_balance_replicated             11 10.9    0.007    0.007    0.032    0.033
 dbcsr_work_create                12398 14.8    0.023    0.023    0.032    0.032
 mp_sum_iv                          262 11.4    0.024    0.032    0.024    0.032
 calculate_atomic_block_dm            1  8.0    0.005    0.005    0.032    0.032
 pw_scale                           119 10.3    0.026    0.031    0.026    0.031
 dbcsr_switch_data_area           17650 16.5    0.015    0.015    0.030    0.031
 mp_isend_iv                      32581 15.8    0.029    0.031    0.029    0.031
 external_control                   118  7.2    0.002    0.009    0.018    0.031
 dbcsr_work_destroy_all           12398 15.7    0.021    0.021    0.030    0.031
 update_particle_set                 20  4.0    0.000    0.000    0.027    0.031
 compute_evals                      119 13.4    0.029    0.029    0.029    0.029
 mp_sum_dv                         6497 15.2    0.025    0.029    0.025    0.029
 fft_wrap_pw1pw2_10                 238 14.0    0.003    0.004    0.025    0.029
 dbcsr_reserve_all_blocks           652 14.1    0.002    0.002    0.026    0.027
 topology_control                     1  2.0    0.001    0.006    0.006    0.027
 mp_irecv_iv                      32592 15.8    0.021    0.027    0.021    0.027
 mp_isendrecv_dv                   4998 14.0    0.018    0.026    0.018    0.026
 fill_hash_tables                  2286 16.5    0.023    0.024    0.023    0.024
 dbcsr_distribution_new           12473 14.0    0.023    0.023    0.023    0.023
 mp_deallocate_i                  31063 16.6    0.022    0.022    0.022    0.022
 mp_cart_create                     158 13.2    0.018    0.021    0.018    0.021
 sort_shells                          4  9.0    0.021    0.021    0.021    0.021
 scf_env_release                      3  4.0    0.000    0.000    0.014    0.021
 destroy_preconditioner               1  3.0    0.000    0.000    0.014    0.021
 qs_env_rebuild_rho                  11  7.9    0.000    0.001    0.020    0.021
 dbcsr_cholesky_invert               11 12.9    0.011    0.012    0.021    0.021
 qs_rho_rebuild                      11  8.9    0.001    0.001    0.020    0.020
 compute_max_radius                   1  6.0    0.019    0.020    0.019    0.020
 wfs_update                          11  5.9    0.000    0.000    0.020    0.020
 mp_allocate_i                    31063 16.9    0.019    0.019    0.019    0.019
 cp_dbcsr_cholesky_decompose         11 12.9    0.009    0.009    0.018    0.019
 mp_max_i                           365  1.6    0.007    0.019    0.007    0.019
 mp_irecv_dm3                      1040 13.7    0.008    0.019    0.008    0.019
 mp_bcast_dv                       1669 16.0    0.013    0.018    0.013    0.018
 build_neighbor_lists_sab_all        11  7.9    0.017    0.017    0.017    0.017
 make_full_kinetic                   11  9.9    0.000    0.000    0.016    0.017
 dbcsr_scale_by_vector_anytype      208 11.2    0.014    0.016    0.015    0.016
 dbcsr_iterator_seek              34529 17.0    0.016    0.016    0.016    0.016
 dbcsr_matrix_vector_mult_local    1669 15.0    0.013    0.013    0.016    0.016
 dbcsr_make_index_local_row        6858 14.5    0.014    0.015    0.015    0.016
 mp_alltoall_i11v                  1575 13.9    0.013    0.016    0.013    0.016
 dbcsr_mm_multrec_finalize         2286 15.5    0.013    0.014    0.015    0.015
 dbcsr_make_dbcsr_index           14352 16.5    0.014    0.015    0.014    0.015
 connectivity_control                 1  3.0    0.000    0.002    0.003    0.015
 build_neighbor_lists_sac_ppl        11  7.9    0.015    0.015    0.015    0.015
 build_neighbor_lists_sab_orb        11  7.9    0.014    0.014    0.014    0.014
 rs_pw_transfer_PW2RS_10            119 14.3    0.008    0.008    0.012    0.013
 rs_pw_transfer_RS2PW_10            119 11.7    0.008    0.008    0.013    0.013
 rot_ana                              1  3.0    0.001    0.001    0.012    0.012
 calculate_atom                       2  9.0    0.000    0.000    0.012    0.012
 calculate_atom_restricted            2 10.0    0.011    0.011    0.012    0.012
 dbcsr_scale_anytype               2109 14.8    0.009    0.010    0.010    0.011
 diamat_all                           1  4.0    0.011    0.011    0.011    0.011
 Gram_Schmidt_ortho_d              1550 14.0    0.003    0.007    0.006    0.011
 dbcsr_scale_d                      228 13.5    0.000    0.000    0.010    0.011
 create_fast_row_vec_access        1669 15.0    0.002    0.002    0.010    0.011
 transpose_index_local              954 14.3    0.004    0.004    0.010    0.011
 write_trajectory                    44  4.9    0.001    0.005    0.002    0.010
 topology_generate_bond               1  4.0    0.000    0.000    0.002    0.010
 create_fast_col_vec_access        1669 15.0    0.001    0.002    0.010    0.010
 atom_int_setup                       2  9.0    0.009    0.009    0.009    0.009
 create_fast_row_vec_access_d      1669 16.0    0.005    0.006    0.009    0.009
 cp_fm_init_random                    1  8.0    0.009    0.009    0.009    0.009
 build_neighbor_lists_sap_ppnl       11  7.9    0.007    0.009    0.007    0.009
 create_fast_col_vec_access_d      1669 16.0    0.005    0.005    0.008    0.008
 DGKS_ortho_d                      1550 14.0    0.002    0.005    0.005    0.008
 dbcsr_get_data_size_used          5540 14.8    0.008    0.008    0.008    0.008
 mp_alltoall_l11v                    11 11.9    0.007    0.007    0.007    0.007
 dbcsr_index_prune_deleted         5967 15.8    0.007    0.007    0.007    0.007
 pw_grid_assign                       4  8.0    0.006    0.007    0.007    0.007
 get_fft_scratch                   1202 15.6    0.006    0.007    0.006    0.007
 mp_isend_dm3                      1040 13.7    0.006    0.006    0.006    0.006
 dbcsr_finalize_lib                   1  2.0    0.000    0.000    0.005    0.006
 mp_sum_b                          4011 13.8    0.006    0.006    0.006    0.006
 init_qs_kind_set                     1  3.0    0.000    0.000    0.006    0.006
 init_qs_kind                         2  4.0    0.001    0.001    0.006    0.006
 create_col_vec_from_matrix         238 13.4    0.001    0.001    0.005    0.006
 mp_max_l                            22  2.0    0.005    0.006    0.005    0.006
 init_orb_basis_set                   2  5.0    0.000    0.000    0.006    0.006
 init_cphi_and_sphi                   2  6.0    0.006    0.006    0.006    0.006
 dbcsr_mempool_clear                458 13.4    0.001    0.001    0.005    0.005
 topology_generate_bond_3             1  5.0    0.000    0.001    0.001    0.005
 write_particle_coordinates          11  5.9    0.001    0.005    0.001    0.005
 dbcsr_hadamard_product              98 13.0    0.004    0.004    0.005    0.005
 mp_environ_l                      1632 14.3    0.005    0.005    0.005    0.005
 dbcsr_mm_sched_init               2286 16.5    0.004    0.004    0.005    0.005
 pw_grid_remap                        4  8.0    0.001    0.001    0.004    0.005
 optimize_load_list                  11 11.9    0.001    0.001    0.003    0.005
 build_fist_neighbor_lists            1  6.0    0.000    0.002    0.001    0.005
 mp_cart_sub                        308 13.3    0.005    0.005    0.005    0.005
 mp_rank_compare                   1201 15.6    0.004    0.005    0.004    0.005
 dbcsr_get_local_cols              4145 14.1    0.004    0.004    0.004    0.004
 write_restart                       10  4.0    0.001    0.003    0.002    0.004
 mp_comm_compare                   1204 15.6    0.004    0.004    0.004    0.004
 cp_fm_to_fm_matrix                  21  7.9    0.004    0.004    0.004    0.004
 dbcsr_get_local_rows              4145 14.1    0.004    0.004    0.004    0.004
 mp_sum_im3                           4  9.0    0.003    0.004    0.003    0.004
 dbcsr_add_on_diag                  138 12.7    0.001    0.001    0.003    0.004
 pw_pool_give_back_pw              2867 12.0    0.003    0.003    0.003    0.003
 pw_pool_create_pw                 2416 11.8    0.002    0.003    0.003    0.003
 mp_environ_c                      1201 15.6    0.003    0.003    0.003    0.003
 build_neighbor_lists                 1  7.0    0.001    0.003    0.001    0.003
 cp_fm_scale_and_add                 24  9.0    0.003    0.003    0.003    0.003
 topology_generate_bond_4             1  5.0    0.001    0.002    0.001    0.003
 topology_connectivity_pack           1  3.0    0.000    0.000    0.001    0.003
 cleanup_scf_loop                    11  7.9    0.000    0.000    0.002    0.003
 mp_bcast_av                        555  1.0    0.001    0.001    0.002    0.002
 write_mo_set_to_restart            108  7.5    0.002    0.002    0.002    0.002
 create_replicated_col_vec_from     119 13.4    0.000    0.000    0.002    0.002
 pw_poisson_rebuild                 119 11.3    0.002    0.002    0.002    0.002
 mp_bcast_i3                         11 12.9    0.001    0.002    0.001    0.002
 create_replicated_row_vec_from     119 13.4    0.000    0.000    0.002    0.002
 mpools_rebuild_fm_pools              1  4.0    0.002    0.002    0.002    0.002
 mp_sum_root_iv                      11 12.9    0.001    0.002    0.001    0.002
 dbcsr_gershgorin_norm               48 11.0    0.001    0.001    0.002    0.002
 mp_bcast_im                        120 14.3    0.002    0.002    0.002    0.002
 scf_post_calculation_gpw            11  5.9    0.000    0.000    0.002    0.002
 build_neighbor_lists_sab_core       11  7.9    0.002    0.002    0.002    0.002
 topology_generate_molecule           1  4.0    0.000    0.002    0.000    0.002
 dbcsr_get_global_row_map          2286 13.5    0.002    0.002    0.002    0.002
 mp_bcast_am                          4  7.0    0.001    0.002    0.002    0.002
 qs_scf_loop_print                  108  7.5    0.002    0.002    0.002    0.002
 mp_comm_free                       474 12.9    0.002    0.002    0.002    0.002
 cp_fm_scale                         10  9.0    0.002    0.002    0.002    0.002
 fft3d_s                              1  2.0    0.000    0.000    0.001    0.002
 dbcsr_mm_sched_finalize           2286 16.5    0.001    0.002    0.001    0.002
 init_interaction_radii               1  3.0    0.002    0.002    0.002    0.002
 qs_scf_print_scf_summary            11  7.9    0.000    0.002    0.000    0.002
 ot_scf_read_input                   11  7.9    0.000    0.000    0.001    0.002
 dbcsr_get_global_col_map          2286 13.5    0.001    0.001    0.001    0.001
 coordinate_control                   1  3.0    0.000    0.000    0.001    0.001
 setup_velocities                     1  3.0    0.000    0.000    0.001    0.001
 coordinate_control_READ_COORDI       1  4.0    0.000    0.000    0.001    0.001
 read_atoms_input                     1  5.0    0.001    0.001    0.001    0.001
 update_input                         1  5.0    0.000    0.000    0.001    0.001
 atom_ppint_setup                     2  9.0    0.001    0.001    0.001    0.001
 pw_grid_distribute                   4  8.0    0.001    0.001    0.001    0.001
 qs_scf_ensure_work_matrices         11  5.9    0.000    0.000    0.001    0.001
 write_available_results             11  6.9    0.000    0.000    0.001    0.001
 ot_readwrite_input                  11  8.9    0.001    0.001    0.001    0.001
 topology_generate_bond_2             1  5.0    0.000    0.001    0.000    0.001
 initialize_velocities                1  4.0    0.001    0.001    0.001    0.001
 update_subsys                        1  6.0    0.000    0.000    0.001    0.001
 read_qs_section                      1  3.0    0.001    0.001    0.001    0.001
 section_coord_val_set                1  7.0    0.001    0.001    0.001    0.001
 distribute_molecules_2d              1  4.0    0.001    0.001    0.001    0.001
 mp_maxloc_dv                      1111  1.0    0.001    0.001    0.001    0.001
 init_cube_info                       4  6.0    0.001    0.001    0.001    0.001
 qs_scf_ensure_mos                   11  5.9    0.001    0.001    0.001    0.001
 dbcsr_mm_hostdrv_init             2286 17.5    0.001    0.001    0.001    0.001
 scf_c_write_parameters               1  3.0    0.000    0.001    0.000    0.001
 release_fast_vec_access           3338 15.0    0.001    0.001    0.001    0.001
 topology_coordinate_pack             1  3.0    0.000    0.000    0.000    0.001
 topology_constraint_pack             1  3.0    0.000    0.000    0.000    0.001
 mp_allgather_l                     121 12.6    0.001    0.001    0.001    0.001
 rs_grid_create_descriptor            4  6.0    0.001    0.001    0.001    0.001
 pw_create                          382 12.9    0.001    0.001    0.001    0.001
 connectivity_control_check_ele       1  4.0    0.000    0.001    0.000    0.001
 write_mo_free_results               11  7.9    0.000    0.000    0.001    0.001
 mp_bcast_iv                         33  4.1    0.001    0.001    0.001    0.001
 create_grid_atom                     2  9.0    0.001    0.001    0.001    0.001
 calculate_atom_vxc_lda              12 11.0    0.001    0.001    0.001    0.001
 restraint_control                   11  3.9    0.000    0.000    0.001    0.001
 qs_efield_local_operator           119 10.3    0.000    0.001    0.000    0.001
 check_generate_mol                   1  6.0    0.000    0.001    0.000    0.001
 write_qs_control                     1  3.0    0.001    0.001    0.001    0.001
 topology_coordinate_pack_1           1  4.0    0.000    0.001    0.000    0.001
 topology_connectivity_pack_6         1  4.0    0.000    0.001    0.000    0.001
 write_mo_dependent_results          11  7.9    0.000    0.000    0.000    0.000
 qs_efield_berry_phase              119 10.3    0.000    0.000    0.000    0.000
 kpoint_initialize                    1  2.0    0.000    0.000    0.000    0.000
 qs_ks_did_change                   130  7.7    0.000    0.000    0.000    0.000
 create_destination_list             11 11.9    0.000    0.000    0.000    0.000
 dump_info_core_hamiltonian          22  6.9    0.000    0.000    0.000    0.000
 topology_generate_bond_6             1  5.0    0.000    0.000    0.000    0.000
 distribute_molecules_1d              1  3.0    0.000    0.000    0.000    0.000
 set_mo_occupation_1                120  9.4    0.000    0.000    0.000    0.000
 atom2d_build                        11  7.9    0.000    0.000    0.000    0.000
 topology_constraint_pack_7           1  4.0    0.000    0.000    0.000    0.000
 write_structure_data                12  4.8    0.000    0.000    0.000    0.000
 topology_muc                         1  4.0    0.000    0.000    0.000    0.000
 cp_fm_release                      230 11.4    0.000    0.000    0.000    0.000
 balance_global_list                 11 12.9    0.000    0.000    0.000    0.000
 dbcsr_verify_matrix                 22  9.9    0.000    0.000    0.000    0.000
 atom_relint_setup                    2  9.0    0.000    0.000    0.000    0.000
 cp_ddapc_init                       11  7.9    0.000    0.000    0.000    0.000
 mp_sum_im                            5  6.8    0.000    0.000    0.000    0.000
 fix_atom_control                    11  3.9    0.000    0.000    0.000    0.000
 create_local_fixd_list              11  4.9    0.000    0.000    0.000    0.000
 scf_c_create                         1  3.0    0.000    0.000    0.000    0.000
 pw_grid_allocate                     4  8.0    0.000    0.000    0.000    0.000
 topology_connectivity_pack_10        1  4.0    0.000    0.000    0.000    0.000
 topology_connectivity_pack_5         1  4.0    0.000    0.000    0.000    0.000
 topology_constraint_pack_1           1  4.0    0.000    0.000    0.000    0.000
 topology_connectivity_pack_2         1  4.0    0.000    0.000    0.000    0.000
 fist_neighbor_init                   1  8.0    0.000    0.000    0.000    0.000
 pw_poisson_set                       1  6.0    0.000    0.000    0.000    0.000
 mp_sum_partial_im                   11 12.9    0.000    0.000    0.000    0.000
 contract2                           15 10.0    0.000    0.000    0.000    0.000
 topology_connectivity_pack_11        1  4.0    0.000    0.000    0.000    0.000
 mp_sum_i                            12  4.6    0.000    0.000    0.000    0.000
 topology_constraint_pack_4           1  4.0    0.000    0.000    0.000    0.000
 write_symmetry                       1  3.0    0.000    0.000    0.000    0.000
 calculate_ecore_self                22  5.9    0.000    0.000    0.000    0.000
 topology_coordinate_pack_7a          1  4.0    0.000    0.000    0.000    0.000
 topology_generate_bond_1             1  5.0    0.000    0.000    0.000    0.000
 sort_neighbor_lists                  1  7.0    0.000    0.000    0.000    0.000
 topology_connectivity_pack_4         1  4.0    0.000    0.000    0.000    0.000
 topology_connectivity_pack_14        1  4.0    0.000    0.000    0.000    0.000
 update_motion                        1  6.0    0.000    0.000    0.000    0.000
 mp_max_r                             1  3.0    0.000    0.000    0.000    0.000
 -------------------------------------------------------------------------------

 The number of warnings for this run is : 2
 
 -------------------------------------------------------------------------------
  **** **** ******  **  PROGRAM ENDED AT                 2018-01-08 15:47:25.783
 ***** ** ***  *** **   PROGRAM RAN ON                                  nid03176
 **    ****   ******    PROGRAM RAN BY                                    ongari
 ***** **    ** ** **   PROGRAM PROCESS ID                                 20456
  **** **  *******  **  PROGRAM STOPPED IN /scratch/snx3000/ongari/lsmo_benchmar
                                           k/cp2k/06_daint_cp2k-5.0_CrayGNU-cuda
                                           /ncores_008
