#     Step Nr.          Time[fs]        Kin.[a.u.]          Temp[K]            Pot.[a.u.]        Cons Qty[a.u.]        UsedTime[s]
         0            0.000000         0.272187779       300.000000000     -1101.031006970     -1100.758819192         0.000000000
         1            0.500000         0.273748892       301.720627704     -1101.039289564     -1100.765540673        60.070430040
         2            1.000000         0.286804493       316.110253933     -1101.052553906     -1100.765749413         8.446434975
         3            1.500000         0.307435399       338.849231259     -1101.073673404     -1100.766238006         8.519495964
         4            2.000000         0.327796509       361.290845127     -1101.094614860     -1100.766818351         8.576753139
         5            2.500000         0.338776814       373.393120820     -1101.105932129     -1100.767155315         7.631676912
         6            3.000000         0.334790809       368.999824432     -1101.101815178     -1100.767024369         6.671725988
         7            3.500000         0.316947309       349.333070765     -1101.083423185     -1100.766475876         5.729336023
         8            4.000000         0.292267936       322.131953368     -1101.058072647     -1100.765804711         5.730407953
         9            4.500000         0.270116145       297.716685945     -1101.035410333     -1100.765294188         6.675671101
        10            5.000000         0.258319150       284.714270875     -1101.023374987     -1100.765055837         6.679459095
