 DBCSR| Multiplication driver                                                SMM
 DBCSR| Multrec recursion limit                                              512
 DBCSR| Multiplication stack size                                           1000
 DBCSR| Multiplication size stacks                                             3
 DBCSR| Use subcommunicators                                                   T
 DBCSR| Use MPI combined types                                                 F
 DBCSR| Use MPI memory allocation                                              T
 DBCSR| Use Communication thread                                               T
 DBCSR| Communication thread load                                             87


  **** **** ******  **  PROGRAM STARTED AT               2017-10-20 13:10:47.944
 ***** ** ***  *** **   PROGRAM STARTED ON                                  b381
 **    ****   ******    PROGRAM STARTED BY                                ongari
 ***** **    ** ** **   PROGRAM PROCESS ID                                 65635
  **** **  *******  **  PROGRAM STARTED IN /scratch/ongari/1_benchmark_official/
                                           cp2k/01_bellatrix_cp2k-2.6_deprecated
                                           -intel/ncores_016

 CP2K| version string:                                          CP2K version 2.6
 CP2K| source code revision number:                                    svn:14880
 CP2K| is freely available from                             http://www.cp2k.org/
 CP2K| Program compiled at                          Thu Feb  5 13:27:59 CET 2015
 CP2K| Program compiled on                                             bellatrix
 CP2K| Program compiled for                                   Linux-x86-64-intel
 CP2K| Input file name                                                H2O-64.inp
 
 GLOBAL| Force Environment number                                              1
 GLOBAL| Basis set file name                                      GTH_BASIS_SETS
 GLOBAL| Geminal file name                                         BASIS_GEMINAL
 GLOBAL| Potential file name                                           POTENTIAL
 GLOBAL| MM Potential file name                                     MM_POTENTIAL
 GLOBAL| Coordinate file name                                      __STD_INPUT__
 GLOBAL| Method name                                                        CP2K
 GLOBAL| Project name                                                     H2O-64
 GLOBAL| Preferred FFT library                                             FFTW3
 GLOBAL| Preferred diagonalization lib.                                       SL
 GLOBAL| Run type                                                             MD
 GLOBAL| All-to-all communication in single precision                          F
 GLOBAL| FFTs using library dependent lengths                                  F
 GLOBAL| Global print level                                                  LOW
 GLOBAL| Total number of message passing processes                            16
 GLOBAL| Number of threads for this process                                    1
 GLOBAL| This output is from process                                           0

 MEMORY| system memory details [Kb]
 MEMORY|                        rank 0           min           max       average
 MEMORY| MemTotal             32783780      32783780      32783780      32783780
 MEMORY| MemFree              29799432      29796084      29799432      29796316
 MEMORY| Buffers                 11584         11584         11584         11584
 MEMORY| Cached                 318520        318496        318520        318497
 MEMORY| Slab                   105684        105684        105684        105684
 MEMORY| SReclaimable            27880         27880         27880         27880
 MEMORY| MemLikelyFree        30157416      30154044      30157416      30154278

 
 GENERATE|  Preliminary Number of Bonds generated:                             0
 GENERATE|  Achieved consistency in connectivity generation.

 *******************************************************************************
 *******************************************************************************
 **                                                                           **
 **     #####                         ##              ##                      **
 **    ##   ##            ##          ##              ##                      **
 **   ##     ##                       ##            ######                    **
 **   ##     ##  ##   ##  ##   #####  ##  ##   ####   ##    #####    #####    **
 **   ##     ##  ##   ##  ##  ##      ## ##   ##      ##   ##   ##  ##   ##   **
 **   ##  ## ##  ##   ##  ##  ##      ####     ###    ##   ######   ######    **
 **    ##  ###   ##   ##  ##  ##      ## ##      ##   ##   ##       ##        **
 **     #######   #####   ##   #####  ##  ##  ####    ##    #####   ##        **
 **           ##                                                    ##        **
 **                                                                           **
 **                                                ... make the atoms dance   **
 **                                                                           **
 **            Copyright (C) by CP2K Developers Group (2000 - 2014)           **
 **                                                                           **
 *******************************************************************************


 SCF PARAMETERS         Density guess:                                    ATOMIC
                        --------------------------------------------------------
                        max_scf:                                              50
                        max_scf_history:                                       0
                        max_diis:                                              4
                        --------------------------------------------------------
                        eps_scf:                                        1.00E-05
                        eps_scf_history:                                0.00E+00
                        eps_diis:                                       1.00E-01
                        eps_eigval:                                     1.00E-05
                        --------------------------------------------------------
                        level_shift [a.u.]:                                 0.00
                        --------------------------------------------------------
                        No outer SCF
 
 MD| Molecular Dynamics Protocol 
 MD| Ensemble Type                                                           NVE
 MD| Number of Time Steps                                                     10
 MD| Time Step [fs]                                                         0.50
 MD| Temperature [K]                                                      300.00
 MD| Temperature tolerance [K]                                              0.00
 MD| Print MD information every                                        1 step(s)
 MD| File type     Print frequency[steps]                             File names
 MD| Coordinates            1                                   H2O-64-pos-1.xyz
 MD| Velocities             1                                   H2O-64-vel-1.xyz
 MD| Energies               1                                      H2O-64-1.ener
 MD| Dump                  20                                   H2O-64-1.restart
 
 ROT| Rotational Analysis Info 
 ROT| Principal axes and moments of inertia in atomic units:
 ROT|                                1                 2                 3
 ROT| EIGENVALUES            0.174175353E+09   0.187507692E+09   0.199545123E+09
 ROT|      X                    -0.734964520       0.242599134       0.633224142
 ROT|      Y                    -0.044883650       0.914361712      -0.402402930
 ROT|      Z                    -0.676618513      -0.324173287      -0.661134682
 ROT| Numer of Rotovibrational vectors:     6

 Calculation of degrees of freedom
                                                      Number of atoms:       192
                                 Number of Intramolecular constraints:         0
                                 Number of Intermolecular constraints:         0
                                  Invariants(translation + rotations):         3
                                                   Degrees of freedom:       573


 Restraints Information
                                  Number of Intramolecular restraints:         0
                                  Number of Intermolecular restraints:         0
 ************************** Velocities initialization **************************
 Initial Temperature                                                    300.00 K
 COM velocity:           -0.000000000000     -0.000000000000     -0.000000000000
 *******************************************************************************


 Number of electrons:                                                        512
 Number of occupied orbitals:                                                256
 Number of molecular orbitals:                                               256

 Number of orbital functions:                                               2560
 Number of independent orbital functions:                                   2560

 Extrapolation method: initial_guess


 SCF WAVEFUNCTION OPTIMIZATION

  ----------------------------------- OT ---------------------------------------

  Allowing for rotations:  F
  Optimizing orbital energies:  F
  Minimizer      : DIIS                : direct inversion
                                         in the iterative subspace
                            using      : -   7 DIIS vectors
                                         - safer DIIS on
  Preconditioner : FULL_KINETIC        : inversion of T + eS
  Precond_solver : DEFAULT
  stepsize       :    0.15000000
  energy_gap     :    0.20000000

  eps_taylor     :   0.10000E-15
  max_taylor     :             4

  mixed_precision    : F

  ----------------------------------- OT ---------------------------------------

  Step     Update method      Time    Convergence         Total energy    Change
  ------------------------------------------------------------------------------
     1 OT DIIS     0.15E+00    0.9     0.01332027     -1059.3825079557 -1.06E+03
     2 OT DIIS     0.15E+00    1.0     0.00868183     -1073.0837973670 -1.37E+01
     3 OT DIIS     0.15E+00    1.0     0.00608177     -1082.3329449393 -9.25E+00
     4 OT DIIS     0.15E+00    1.0     0.00420419     -1088.9991944739 -6.67E+00
     5 OT DIIS     0.15E+00    1.0     0.00319228     -1092.5975694249 -3.60E+00
     6 OT DIIS     0.15E+00    1.0     0.00242089     -1095.2728736089 -2.68E+00
     7 OT DIIS     0.15E+00    1.0     0.00180823     -1097.1827110187 -1.91E+00
     8 OT DIIS     0.15E+00    1.0     0.00136563     -1098.4047633188 -1.22E+00
     9 OT DIIS     0.15E+00    1.0     0.00107154     -1099.0957253930 -6.91E-01
    10 OT DIIS     0.15E+00    1.0     0.00085958     -1099.5568478897 -4.61E-01
    11 OT DIIS     0.15E+00    1.0     0.00070902     -1099.8674344588 -3.11E-01
    12 OT DIIS     0.15E+00    1.0     0.00059349     -1100.0778291172 -2.10E-01
    13 OT DIIS     0.15E+00    1.0     0.00050949     -1100.2324062136 -1.55E-01
    14 OT DIIS     0.15E+00    1.0     0.00044833     -1100.3361495732 -1.04E-01
    15 OT DIIS     0.15E+00    1.0     0.00039690     -1100.4341573205 -9.80E-02
    16 OT DIIS     0.15E+00    1.0     0.00035862     -1100.5038829257 -6.97E-02
    17 OT DIIS     0.15E+00    1.0     0.00034534     -1100.5572959989 -5.34E-02
    18 OT DIIS     0.15E+00    1.0     0.00034139     -1100.5793052943 -2.20E-02
    19 OT DIIS     0.15E+00    1.0     0.00033463     -1100.5947747725 -1.55E-02
    20 OT SD       0.15E+00    1.0     0.00033658     -1100.6056260666 -1.09E-02
    21 OT DIIS     0.15E+00    1.0     0.00033500     -1100.6167319763 -1.11E-02
    22 OT DIIS     0.15E+00    1.0     0.00032752     -1100.6181772877 -1.45E-03
    23 OT DIIS     0.15E+00    1.0     0.00032184     -1100.6243788064 -6.20E-03
    24 OT DIIS     0.15E+00    1.0     0.00030944     -1100.6371111613 -1.27E-02
    25 OT SD       0.15E+00    1.0     0.00030022     -1100.6455945048 -8.48E-03
    26 OT DIIS     0.15E+00    1.0     0.00029911     -1100.6544335251 -8.84E-03
    27 OT DIIS     0.15E+00    1.0     0.00028894     -1100.6591662825 -4.73E-03
    28 OT SD       0.15E+00    1.0     0.00028473     -1100.6665469323 -7.38E-03
    29 OT SD       0.15E+00    1.0     0.00028442     -1100.6745080801 -7.96E-03
    30 OT SD       0.15E+00    1.0     0.00028480     -1100.6824637366 -7.96E-03
    31 OT SD       0.15E+00    1.0     0.00028544     -1100.6904451527 -7.98E-03
    32 OT DIIS     0.15E+00    1.0     0.00028617     -1100.6984643086 -8.02E-03
    33 OT SD       0.15E+00    1.0     0.00033212     -1100.7435639637 -4.51E-02
    34 OT SD       0.15E+00    1.0     0.00031463     -1100.7540641969 -1.05E-02
    35 OT SD       0.15E+00    1.0     0.00030588     -1100.7636402128 -9.58E-03
    36 OT SD       0.15E+00    1.0     0.00030057     -1100.7727489686 -9.11E-03
    37 OT SD       0.15E+00    1.0     0.00029679     -1100.7815697672 -8.82E-03
    38 OT SD       0.15E+00    1.0     0.00029367     -1100.7901809979 -8.61E-03
    39 OT DIIS     0.15E+00    1.0     0.00029082     -1100.7986166935 -8.44E-03
    40 OT SD       0.15E+00    1.0     0.00016832     -1100.9875398770 -1.89E-01
    41 OT DIIS     0.15E+00    1.0     0.00014749     -1100.9901042393 -2.56E-03
    42 OT DIIS     0.15E+00    1.0     0.00023359     -1100.9860270239  4.08E-03
    43 OT DIIS     0.15E+00    1.0     0.00017591     -1100.9988969375 -1.29E-02
    44 OT DIIS     0.15E+00    1.0     0.00022226     -1101.0010831348 -2.19E-03
    45 OT DIIS     0.15E+00    1.0     0.00015342     -1101.0160500110 -1.50E-02
    46 OT DIIS     0.15E+00    1.0     0.00005874     -1101.0255699554 -9.52E-03
    47 OT DIIS     0.15E+00    1.0     0.00007360     -1101.0255460655  2.39E-05
    48 OT DIIS     0.15E+00    1.0     0.00005773     -1101.0267774770 -1.23E-03
    49 OT DIIS     0.15E+00    1.0     0.00005383     -1101.0275719804 -7.95E-04
    50 OT DIIS     0.15E+00    1.0     0.00004287     -1101.0287889094 -1.22E-03

  *** SCF run NOT converged ***


  Electronic density on regular grids:       -512.0000015471       -0.0000015471
  Core density on regular grids:              512.0000000045        0.0000000045
  Total charge density on r-space grids:       -0.0000015426
  Total charge density g-space grids:          -0.0000015426

  Overlap energy of the core charge distribution:               0.00000562599749
  Self energy of the core charge distribution:              -2805.30499493854904
  Core Hamiltonian energy:                                    825.29378519580871
  Hartree energy:                                            1145.26167274333602
  Exchange-correlation energy:                               -266.27925753597464

  Total energy:                                             -1101.02878890938177

 ENERGY| Total FORCE_EVAL ( QS ) energy (a.u.):            -1101.031006970489670

 
 MD_ENERGIES| Initialization proceeding
 

 ******************************** GO CP2K GO! **********************************
 INITIAL POTENTIAL ENERGY[hartree]     =                     -0.110103100697E+04
 INITIAL KINETIC ENERGY[hartree]       =                      0.272187778755E+00
 INITIAL TEMPERATURE[K]                =                                 300.000
 INITIAL VOLUME[bohr^3]                =                      0.129095421321E+05
 INITIAL CELL LNTHS[bohr]   =      0.2345868E+02   0.2345868E+02   0.2345868E+02
 INITIAL CELL ANGLS[deg]    =      0.9000000E+02   0.9000000E+02   0.9000000E+02
 ******************************** GO CP2K GO! **********************************

 Number of electrons:                                                        512
 Number of occupied orbitals:                                                256
 Number of molecular orbitals:                                               256

 Number of orbital functions:                                               2560
 Number of independent orbital functions:                                   2560

 Extrapolation method: PS Nth order


 SCF WAVEFUNCTION OPTIMIZATION

  ----------------------------------- OT ---------------------------------------

  Allowing for rotations:  F
  Optimizing orbital energies:  F
  Minimizer      : DIIS                : direct inversion
                                         in the iterative subspace
                            using      : -   7 DIIS vectors
                                         - safer DIIS on
  Preconditioner : FULL_KINETIC        : inversion of T + eS
  Precond_solver : DEFAULT
  stepsize       :    0.15000000
  energy_gap     :    0.20000000

  eps_taylor     :   0.10000E-15
  max_taylor     :             4

  mixed_precision    : F

  ----------------------------------- OT ---------------------------------------

  Step     Update method      Time    Convergence         Total energy    Change
  ------------------------------------------------------------------------------
     1 OT DIIS     0.15E+00    0.8     0.00024949     -1101.0278031973 -1.10E+03
     2 OT DIIS     0.15E+00    0.9     0.00016075     -1101.0327091507 -4.91E-03
     3 OT DIIS     0.15E+00    0.9     0.00009050     -1101.0362863174 -3.58E-03
     4 OT DIIS     0.15E+00    0.9     0.00006199     -1101.0377277257 -1.44E-03
     5 OT DIIS     0.15E+00    0.9     0.00003797     -1101.0386877894 -9.60E-04
     6 OT DIIS     0.15E+00    0.9     0.00002205     -1101.0391017620 -4.14E-04
     7 OT DIIS     0.15E+00    0.9     0.00001260     -1101.0392355452 -1.34E-04
     8 OT DIIS     0.15E+00    0.9     0.00000723     -1101.0392767828 -4.12E-05

  *** SCF run converged in     8 steps ***


  Electronic density on regular grids:       -512.0000014916       -0.0000014916
  Core density on regular grids:              511.9999999975       -0.0000000025
  Total charge density on r-space grids:       -0.0000014941
  Total charge density g-space grids:          -0.0000014941

  Overlap energy of the core charge distribution:               0.00000554074590
  Self energy of the core charge distribution:              -2805.30499493854904
  Core Hamiltonian energy:                                    824.99709670267862
  Hartree energy:                                            1145.47089243838673
  Exchange-correlation energy:                               -266.20227652606525

  Total energy:                                             -1101.03927678280297

 ENERGY| Total FORCE_EVAL ( QS ) energy (a.u.):            -1101.039289564183491


 *******************************************************************************
 ENSEMBLE TYPE                =                                              NVE
 STEP NUMBER                  =                                                1
 TIME [fs]                    =                                         0.500000
 CONSERVED QUANTITY [hartree] =                              -0.110076554067E+04

                                              INSTANTANEOUS             AVERAGES
 CPU TIME [s]                 =                       60.07                60.07
 ENERGY DRIFT PER ATOM [K]    =         -0.110545482831E+02   0.000000000000E+00
 POTENTIAL ENERGY[hartree]    =         -0.110103928956E+04  -0.110103928956E+04
 KINETIC ENERGY [hartree]     =          0.273748891531E+00   0.273748891531E+00
 TEMPERATURE [K]              =                     301.721              301.721
 *******************************************************************************


 Number of electrons:                                                        512
 Number of occupied orbitals:                                                256
 Number of molecular orbitals:                                               256

 Number of orbital functions:                                               2560
 Number of independent orbital functions:                                   2560

 Extrapolation method: PS Nth order


 SCF WAVEFUNCTION OPTIMIZATION

  ----------------------------------- OT ---------------------------------------

  Allowing for rotations:  F
  Optimizing orbital energies:  F
  Minimizer      : DIIS                : direct inversion
                                         in the iterative subspace
                            using      : -   7 DIIS vectors
                                         - safer DIIS on
  Preconditioner : FULL_KINETIC        : inversion of T + eS
  Precond_solver : DEFAULT
  stepsize       :    0.15000000
  energy_gap     :    0.20000000

  eps_taylor     :   0.10000E-15
  max_taylor     :             4

  mixed_precision    : F

  ----------------------------------- OT ---------------------------------------

  Step     Update method      Time    Convergence         Total energy    Change
  ------------------------------------------------------------------------------
     1 OT DIIS     0.15E+00    0.8     0.00018187     -1101.0453213800 -1.10E+03
     2 OT DIIS     0.15E+00    0.9     0.00012503     -1101.0480054177 -2.68E-03
     3 OT DIIS     0.15E+00    0.9     0.00007517     -1101.0503828138 -2.38E-03
     4 OT DIIS     0.15E+00    0.9     0.00005150     -1101.0514777102 -1.09E-03
     5 OT DIIS     0.15E+00    0.9     0.00002882     -1101.0522243705 -7.47E-04
     6 OT DIIS     0.15E+00    0.9     0.00001712     -1101.0524515285 -2.27E-04
     7 OT DIIS     0.15E+00    0.9     0.00000972     -1101.0525297374 -7.82E-05

  *** SCF run converged in     7 steps ***


  Electronic density on regular grids:       -512.0000014203       -0.0000014203
  Core density on regular grids:              511.9999999954       -0.0000000046
  Total charge density on r-space grids:       -0.0000014249
  Total charge density g-space grids:          -0.0000014249

  Overlap energy of the core charge distribution:               0.00000508717620
  Self energy of the core charge distribution:              -2805.30499493854904
  Core Hamiltonian energy:                                    823.99099496087001
  Hartree energy:                                            1146.19319013931272
  Exchange-correlation energy:                               -265.93172498622005

  Total energy:                                             -1101.05252973741017

 ENERGY| Total FORCE_EVAL ( QS ) energy (a.u.):            -1101.052553906069534


 *******************************************************************************
 ENSEMBLE TYPE                =                                              NVE
 STEP NUMBER                  =                                                2
 TIME [fs]                    =                                         1.000000
 CONSERVED QUANTITY [hartree] =                              -0.110076574941E+04

                                              INSTANTANEOUS             AVERAGES
 CPU TIME [s]                 =                        8.45                34.26
 ENERGY DRIFT PER ATOM [K]    =         -0.113978554389E+02  -0.569892771945E+01
 POTENTIAL ENERGY[hartree]    =         -0.110105255391E+04  -0.110104592174E+04
 KINETIC ENERGY [hartree]     =          0.286804492866E+00   0.280276692199E+00
 TEMPERATURE [K]              =                     316.110              308.915
 *******************************************************************************


 Number of electrons:                                                        512
 Number of occupied orbitals:                                                256
 Number of molecular orbitals:                                               256

 Number of orbital functions:                                               2560
 Number of independent orbital functions:                                   2560

 Extrapolation method: PS Nth order


 SCF WAVEFUNCTION OPTIMIZATION

  ----------------------------------- OT ---------------------------------------

  Allowing for rotations:  F
  Optimizing orbital energies:  F
  Minimizer      : DIIS                : direct inversion
                                         in the iterative subspace
                            using      : -   7 DIIS vectors
                                         - safer DIIS on
  Preconditioner : FULL_KINETIC        : inversion of T + eS
  Precond_solver : DEFAULT
  stepsize       :    0.15000000
  energy_gap     :    0.20000000

  eps_taylor     :   0.10000E-15
  max_taylor     :             4

  mixed_precision    : F

  ----------------------------------- OT ---------------------------------------

  Step     Update method      Time    Convergence         Total energy    Change
  ------------------------------------------------------------------------------
     1 OT DIIS     0.15E+00    0.8     0.00016599     -1101.0673401753 -1.10E+03
     2 OT DIIS     0.15E+00    0.9     0.00011755     -1101.0696106440 -2.27E-03
     3 OT DIIS     0.15E+00    0.9     0.00007010     -1101.0718403922 -2.23E-03
     4 OT DIIS     0.15E+00    0.9     0.00004686     -1101.0728159784 -9.76E-04
     5 OT DIIS     0.15E+00    0.9     0.00002506     -1101.0734352743 -6.19E-04
     6 OT DIIS     0.15E+00    0.9     0.00001526     -1101.0735929642 -1.58E-04
     7 OT DIIS     0.15E+00    0.9     0.00000857     -1101.0736544804 -6.15E-05

  *** SCF run converged in     7 steps ***


  Electronic density on regular grids:       -512.0000013340       -0.0000013340
  Core density on regular grids:              511.9999999979       -0.0000000021
  Total charge density on r-space grids:       -0.0000013361
  Total charge density g-space grids:          -0.0000013361

  Overlap energy of the core charge distribution:               0.00000421676059
  Self energy of the core charge distribution:              -2805.30499493854904
  Core Hamiltonian energy:                                    822.43891721791169
  Hartree energy:                                            1147.30180930881761
  Exchange-correlation energy:                               -265.50939028538005

  Total energy:                                             -1101.07365448043902

 ENERGY| Total FORCE_EVAL ( QS ) energy (a.u.):            -1101.073673404455576


 *******************************************************************************
 ENSEMBLE TYPE                =                                              NVE
 STEP NUMBER                  =                                                3
 TIME [fs]                    =                                         1.500000
 CONSERVED QUANTITY [hartree] =                              -0.110076623801E+04

                                              INSTANTANEOUS             AVERAGES
 CPU TIME [s]                 =                        8.52                25.68
 ENERGY DRIFT PER ATOM [K]    =         -0.122014239958E+02  -0.786642647824E+01
 POTENTIAL ENERGY[hartree]    =         -0.110107367340E+04  -0.110105517229E+04
 KINETIC ENERGY [hartree]     =          0.307435398631E+00   0.289329594343E+00
 TEMPERATURE [K]              =                     338.849              318.893
 *******************************************************************************


 Number of electrons:                                                        512
 Number of occupied orbitals:                                                256
 Number of molecular orbitals:                                               256

 Number of orbital functions:                                               2560
 Number of independent orbital functions:                                   2560

 Extrapolation method: PS Nth order


 SCF WAVEFUNCTION OPTIMIZATION

  ----------------------------------- OT ---------------------------------------

  Allowing for rotations:  F
  Optimizing orbital energies:  F
  Minimizer      : DIIS                : direct inversion
                                         in the iterative subspace
                            using      : -   7 DIIS vectors
                                         - safer DIIS on
  Preconditioner : FULL_KINETIC        : inversion of T + eS
  Precond_solver : DEFAULT
  stepsize       :    0.15000000
  energy_gap     :    0.20000000

  eps_taylor     :   0.10000E-15
  max_taylor     :             4

  mixed_precision    : F

  ----------------------------------- OT ---------------------------------------

  Step     Update method      Time    Convergence         Total energy    Change
  ------------------------------------------------------------------------------
     1 OT DIIS     0.15E+00    0.8     0.00016900     -1101.0882815678 -1.10E+03
     2 OT DIIS     0.15E+00    0.9     0.00012004     -1101.0906392050 -2.36E-03
     3 OT DIIS     0.15E+00    0.9     0.00006991     -1101.0929761641 -2.34E-03
     4 OT DIIS     0.15E+00    0.9     0.00004370     -1101.0939498182 -9.74E-04
     5 OT DIIS     0.15E+00    0.9     0.00002172     -1101.0944515374 -5.02E-04
     6 OT DIIS     0.15E+00    0.9     0.00001364     -1101.0945537971 -1.02E-04
     7 OT DIIS     0.15E+00    0.9     0.00000750     -1101.0946004838 -4.67E-05

  *** SCF run converged in     7 steps ***


  Electronic density on regular grids:       -512.0000012183       -0.0000012183
  Core density on regular grids:              512.0000000002        0.0000000002
  Total charge density on r-space grids:       -0.0000012181
  Total charge density g-space grids:          -0.0000012181

  Overlap energy of the core charge distribution:               0.00000308048338
  Self energy of the core charge distribution:              -2805.30499493854904
  Core Hamiltonian energy:                                    820.48664268817788
  Hartree energy:                                            1148.70443612342115
  Exchange-correlation energy:                               -264.98068743736155

  Total energy:                                             -1101.09460048382789

 ENERGY| Total FORCE_EVAL ( QS ) energy (a.u.):            -1101.094614859945978


 *******************************************************************************
 ENSEMBLE TYPE                =                                              NVE
 STEP NUMBER                  =                                                4
 TIME [fs]                    =                                         2.000000
 CONSERVED QUANTITY [hartree] =                              -0.110076681835E+04

                                              INSTANTANEOUS             AVERAGES
 CPU TIME [s]                 =                        8.58                21.40
 ENERGY DRIFT PER ATOM [K]    =         -0.131558946256E+02  -0.918879351508E+01
 POTENTIAL ENERGY[hartree]    =         -0.110109461486E+04  -0.110106503293E+04
 KINETIC ENERGY [hartree]     =          0.327796508732E+00   0.298946322940E+00
 TEMPERATURE [K]              =                     361.291              329.493
 *******************************************************************************


 Number of electrons:                                                        512
 Number of occupied orbitals:                                                256
 Number of molecular orbitals:                                               256

 Number of orbital functions:                                               2560
 Number of independent orbital functions:                                   2560

 Extrapolation method: PS Nth order


 SCF WAVEFUNCTION OPTIMIZATION

  ----------------------------------- OT ---------------------------------------

  Allowing for rotations:  F
  Optimizing orbital energies:  F
  Minimizer      : DIIS                : direct inversion
                                         in the iterative subspace
                            using      : -   7 DIIS vectors
                                         - safer DIIS on
  Preconditioner : FULL_KINETIC        : inversion of T + eS
  Precond_solver : DEFAULT
  stepsize       :    0.15000000
  energy_gap     :    0.20000000

  eps_taylor     :   0.10000E-15
  max_taylor     :             4

  mixed_precision    : F

  ----------------------------------- OT ---------------------------------------

  Step     Update method      Time    Convergence         Total energy    Change
  ------------------------------------------------------------------------------
     1 OT DIIS     0.15E+00    0.8     0.00006426     -1101.1044110226 -1.10E+03
     2 OT DIIS     0.15E+00    0.9     0.00005315     -1101.1047787978 -3.68E-04
     3 OT DIIS     0.15E+00    0.9     0.00003232     -1101.1054483798 -6.70E-04
     4 OT DIIS     0.15E+00    0.9     0.00002194     -1101.1057147873 -2.66E-04
     5 OT DIIS     0.15E+00    0.9     0.00001212     -1101.1058730943 -1.58E-04
     6 OT DIIS     0.15E+00    0.9     0.00000783     -1101.1059135972 -4.05E-05

  *** SCF run converged in     6 steps ***


  Electronic density on regular grids:       -512.0000010688       -0.0000010688
  Core density on regular grids:              511.9999999989       -0.0000000011
  Total charge density on r-space grids:       -0.0000010699
  Total charge density g-space grids:          -0.0000010699

  Overlap energy of the core charge distribution:               0.00000200945111
  Self energy of the core charge distribution:              -2805.30499493854904
  Core Hamiltonian energy:                                    818.39013738616939
  Hartree energy:                                            1150.21806252673105
  Exchange-correlation energy:                               -264.40912058099934

  Total energy:                                             -1101.10591359719660

 ENERGY| Total FORCE_EVAL ( QS ) energy (a.u.):            -1101.105932128841232


 *******************************************************************************
 ENSEMBLE TYPE                =                                              NVE
 STEP NUMBER                  =                                                5
 TIME [fs]                    =                                         2.500000
 CONSERVED QUANTITY [hartree] =                              -0.110076715531E+04

                                              INSTANTANEOUS             AVERAGES
 CPU TIME [s]                 =                        7.63                18.65
 ENERGY DRIFT PER ATOM [K]    =         -0.137100853259E+02  -0.100930518773E+02
 POTENTIAL ENERGY[hartree]    =         -0.110110593213E+04  -0.110107321277E+04
 KINETIC ENERGY [hartree]     =          0.338776813862E+00   0.306912421125E+00
 TEMPERATURE [K]              =                     373.393              338.273
 *******************************************************************************


 Number of electrons:                                                        512
 Number of occupied orbitals:                                                256
 Number of molecular orbitals:                                               256

 Number of orbital functions:                                               2560
 Number of independent orbital functions:                                   2560

 Extrapolation method: PS Nth order


 SCF WAVEFUNCTION OPTIMIZATION

  ----------------------------------- OT ---------------------------------------

  Allowing for rotations:  F
  Optimizing orbital energies:  F
  Minimizer      : DIIS                : direct inversion
                                         in the iterative subspace
                            using      : -   7 DIIS vectors
                                         - safer DIIS on
  Preconditioner : FULL_KINETIC        : inversion of T + eS
  Precond_solver : DEFAULT
  stepsize       :    0.15000000
  energy_gap     :    0.20000000

  eps_taylor     :   0.10000E-15
  max_taylor     :             4

  mixed_precision    : F

  ----------------------------------- OT ---------------------------------------

  Step     Update method      Time    Convergence         Total energy    Change
  ------------------------------------------------------------------------------
     1 OT DIIS     0.15E+00    0.8     0.00004706     -1101.1011339809 -1.10E+03
     2 OT DIIS     0.15E+00    0.9     0.00003814     -1101.1013293805 -1.95E-04
     3 OT DIIS     0.15E+00    0.9     0.00002079     -1101.1016568934 -3.28E-04
     4 OT DIIS     0.15E+00    0.9     0.00001223     -1101.1017643462 -1.07E-04
     5 OT DIIS     0.15E+00    0.9     0.00000730     -1101.1018023382 -3.80E-05

  *** SCF run converged in     5 steps ***


  Electronic density on regular grids:       -512.0000009008       -0.0000009008
  Core density on regular grids:              511.9999999941       -0.0000000059
  Total charge density on r-space grids:       -0.0000009067
  Total charge density g-space grids:          -0.0000009067

  Overlap energy of the core charge distribution:               0.00000123724779
  Self energy of the core charge distribution:              -2805.30499493854904
  Core Hamiltonian energy:                                    816.35636953626295
  Hartree energy:                                            1151.70037308963992
  Exchange-correlation energy:                               -263.85355126277295

  Total energy:                                             -1101.10180233817118

 ENERGY| Total FORCE_EVAL ( QS ) energy (a.u.):            -1101.101815178015386


 *******************************************************************************
 ENSEMBLE TYPE                =                                              NVE
 STEP NUMBER                  =                                                6
 TIME [fs]                    =                                         3.000000
 CONSERVED QUANTITY [hartree] =                              -0.110076702437E+04

                                              INSTANTANEOUS             AVERAGES
 CPU TIME [s]                 =                        6.67                16.65
 ENERGY DRIFT PER ATOM [K]    =         -0.134947244812E+02  -0.106599973112E+02
 POTENTIAL ENERGY[hartree]    =         -0.110110181518E+04  -0.110107797984E+04
 KINETIC ENERGY [hartree]     =          0.334790808577E+00   0.311558819033E+00
 TEMPERATURE [K]              =                     369.000              343.394
 *******************************************************************************


 Number of electrons:                                                        512
 Number of occupied orbitals:                                                256
 Number of molecular orbitals:                                               256

 Number of orbital functions:                                               2560
 Number of independent orbital functions:                                   2560

 Extrapolation method: PS Nth order


 SCF WAVEFUNCTION OPTIMIZATION

  ----------------------------------- OT ---------------------------------------

  Allowing for rotations:  F
  Optimizing orbital energies:  F
  Minimizer      : DIIS                : direct inversion
                                         in the iterative subspace
                            using      : -   7 DIIS vectors
                                         - safer DIIS on
  Preconditioner : FULL_KINETIC        : inversion of T + eS
  Precond_solver : DEFAULT
  stepsize       :    0.15000000
  energy_gap     :    0.20000000

  eps_taylor     :   0.10000E-15
  max_taylor     :             4

  mixed_precision    : F

  ----------------------------------- OT ---------------------------------------

  Step     Update method      Time    Convergence         Total energy    Change
  ------------------------------------------------------------------------------
     1 OT DIIS     0.15E+00    0.8     0.00004011     -1101.0829342807 -1.10E+03
     2 OT DIIS     0.15E+00    0.9     0.00003295     -1101.0830775654 -1.43E-04
     3 OT DIIS     0.15E+00    0.9     0.00001490     -1101.0833518753 -2.74E-04
     4 OT DIIS     0.15E+00    0.9     0.00000897     -1101.0834071079 -5.52E-05

  *** SCF run converged in     4 steps ***


  Electronic density on regular grids:       -512.0000007415       -0.0000007415
  Core density on regular grids:              511.9999999906       -0.0000000094
  Total charge density on r-space grids:       -0.0000007508
  Total charge density g-space grids:          -0.0000007508

  Overlap energy of the core charge distribution:               0.00000077877949
  Self energy of the core charge distribution:              -2805.30499493854904
  Core Hamiltonian energy:                                    814.58618750348842
  Hartree energy:                                            1153.00177220271235
  Exchange-correlation energy:                               -263.36637265436138

  Total energy:                                             -1101.08340710793027

 ENERGY| Total FORCE_EVAL ( QS ) energy (a.u.):            -1101.083423184783669


 *******************************************************************************
 ENSEMBLE TYPE                =                                              NVE
 STEP NUMBER                  =                                                7
 TIME [fs]                    =                                         3.500000
 CONSERVED QUANTITY [hartree] =                              -0.110076647588E+04

                                              INSTANTANEOUS             AVERAGES
 CPU TIME [s]                 =                        5.73                15.09
 ENERGY DRIFT PER ATOM [K]    =         -0.125926397863E+02  -0.109360890934E+02
 POTENTIAL ENERGY[hartree]    =         -0.110108342318E+04  -0.110107875746E+04
 KINETIC ENERGY [hartree]     =          0.316947308591E+00   0.312328603256E+00
 TEMPERATURE [K]              =                     349.333              344.242
 *******************************************************************************


 Number of electrons:                                                        512
 Number of occupied orbitals:                                                256
 Number of molecular orbitals:                                               256

 Number of orbital functions:                                               2560
 Number of independent orbital functions:                                   2560

 Extrapolation method: PS Nth order


 SCF WAVEFUNCTION OPTIMIZATION

  ----------------------------------- OT ---------------------------------------

  Allowing for rotations:  F
  Optimizing orbital energies:  F
  Minimizer      : DIIS                : direct inversion
                                         in the iterative subspace
                            using      : -   7 DIIS vectors
                                         - safer DIIS on
  Preconditioner : FULL_KINETIC        : inversion of T + eS
  Precond_solver : DEFAULT
  stepsize       :    0.15000000
  energy_gap     :    0.20000000

  eps_taylor     :   0.10000E-15
  max_taylor     :             4

  mixed_precision    : F

  ----------------------------------- OT ---------------------------------------

  Step     Update method      Time    Convergence         Total energy    Change
  ------------------------------------------------------------------------------
     1 OT DIIS     0.15E+00    0.8     0.00003934     -1101.0575993377 -1.10E+03
     2 OT DIIS     0.15E+00    0.9     0.00003220     -1101.0577372340 -1.38E-04
     3 OT DIIS     0.15E+00    0.9     0.00001302     -1101.0580145435 -2.77E-04
     4 OT DIIS     0.15E+00    0.9     0.00000937     -1101.0580508352 -3.63E-05

  *** SCF run converged in     4 steps ***


  Electronic density on regular grids:       -512.0000006088       -0.0000006088
  Core density on regular grids:              511.9999999927       -0.0000000073
  Total charge density on r-space grids:       -0.0000006162
  Total charge density g-space grids:          -0.0000006162

  Overlap energy of the core charge distribution:               0.00000054143077
  Self energy of the core charge distribution:              -2805.30499493854904
  Core Hamiltonian energy:                                    813.21035139966557
  Hartree energy:                                            1154.02258426747494
  Exchange-correlation energy:                               -262.98599210525390

  Total energy:                                             -1101.05805083523160

 ENERGY| Total FORCE_EVAL ( QS ) energy (a.u.):            -1101.058072647131212


 *******************************************************************************
 ENSEMBLE TYPE                =                                              NVE
 STEP NUMBER                  =                                                8
 TIME [fs]                    =                                         4.000000
 CONSERVED QUANTITY [hartree] =                              -0.110076580471E+04

                                              INSTANTANEOUS             AVERAGES
 CPU TIME [s]                 =                        5.73                13.92
 ENERGY DRIFT PER ATOM [K]    =         -0.114888014159E+02  -0.110051781337E+02
 POTENTIAL ENERGY[hartree]    =         -0.110105807265E+04  -0.110107617186E+04
 KINETIC ENERGY [hartree]     =          0.292267936178E+00   0.309821019871E+00
 TEMPERATURE [K]              =                     322.132              341.479
 *******************************************************************************


 Number of electrons:                                                        512
 Number of occupied orbitals:                                                256
 Number of molecular orbitals:                                               256

 Number of orbital functions:                                               2560
 Number of independent orbital functions:                                   2560

 Extrapolation method: PS Nth order


 SCF WAVEFUNCTION OPTIMIZATION

  ----------------------------------- OT ---------------------------------------

  Allowing for rotations:  F
  Optimizing orbital energies:  F
  Minimizer      : DIIS                : direct inversion
                                         in the iterative subspace
                            using      : -   7 DIIS vectors
                                         - safer DIIS on
  Preconditioner : FULL_KINETIC        : inversion of T + eS
  Precond_solver : DEFAULT
  stepsize       :    0.15000000
  energy_gap     :    0.20000000

  eps_taylor     :   0.10000E-15
  max_taylor     :             4

  mixed_precision    : F

  ----------------------------------- OT ---------------------------------------

  Step     Update method      Time    Convergence         Total energy    Change
  ------------------------------------------------------------------------------
     1 OT DIIS     0.15E+00    0.8     0.00004063     -1101.0348904322 -1.10E+03
     2 OT DIIS     0.15E+00    0.9     0.00003307     -1101.0350368933 -1.46E-04
     3 OT DIIS     0.15E+00    0.9     0.00001525     -1101.0353096355 -2.73E-04
     4 OT DIIS     0.15E+00    0.9     0.00001093     -1101.0353590213 -4.94E-05
     5 OT DIIS     0.15E+00    0.9     0.00000786     -1101.0353880727 -2.91E-05

  *** SCF run converged in     5 steps ***


  Electronic density on regular grids:       -512.0000004818       -0.0000004818
  Core density on regular grids:              511.9999999968       -0.0000000032
  Total charge density on r-space grids:       -0.0000004851
  Total charge density g-space grids:          -0.0000004851

  Overlap energy of the core charge distribution:               0.00000043858940
  Self energy of the core charge distribution:              -2805.30499493854904
  Core Hamiltonian energy:                                    812.31303125933584
  Hartree energy:                                            1154.69416750546543
  Exchange-correlation energy:                               -262.73759233755140

  Total energy:                                             -1101.03538807271002

 ENERGY| Total FORCE_EVAL ( QS ) energy (a.u.):            -1101.035410333127629


 *******************************************************************************
 ENSEMBLE TYPE                =                                              NVE
 STEP NUMBER                  =                                                9
 TIME [fs]                    =                                         4.500000
 CONSERVED QUANTITY [hartree] =                              -0.110076529419E+04

                                              INSTANTANEOUS             AVERAGES
 CPU TIME [s]                 =                        6.68                13.12
 ENERGY DRIFT PER ATOM [K]    =         -0.106491654337E+02  -0.109656211670E+02
 POTENTIAL ENERGY[hartree]    =         -0.110103541033E+04  -0.110107164280E+04
 KINETIC ENERGY [hartree]     =          0.270116144820E+00   0.305409367088E+00
 TEMPERATURE [K]              =                     297.717              336.616
 *******************************************************************************


 Number of electrons:                                                        512
 Number of occupied orbitals:                                                256
 Number of molecular orbitals:                                               256

 Number of orbital functions:                                               2560
 Number of independent orbital functions:                                   2560

 Extrapolation method: PS Nth order


 SCF WAVEFUNCTION OPTIMIZATION

  ----------------------------------- OT ---------------------------------------

  Allowing for rotations:  F
  Optimizing orbital energies:  F
  Minimizer      : DIIS                : direct inversion
                                         in the iterative subspace
                            using      : -   7 DIIS vectors
                                         - safer DIIS on
  Preconditioner : FULL_KINETIC        : inversion of T + eS
  Precond_solver : DEFAULT
  stepsize       :    0.15000000
  energy_gap     :    0.20000000

  eps_taylor     :   0.10000E-15
  max_taylor     :             4

  mixed_precision    : F

  ----------------------------------- OT ---------------------------------------

  Step     Update method      Time    Convergence         Total energy    Change
  ------------------------------------------------------------------------------
     1 OT DIIS     0.15E+00    0.8     0.00004272     -1101.0227185822 -1.10E+03
     2 OT DIIS     0.15E+00    0.9     0.00003547     -1101.0228816340 -1.63E-04
     3 OT DIIS     0.15E+00    0.9     0.00001954     -1101.0231905787 -3.09E-04
     4 OT DIIS     0.15E+00    0.9     0.00001351     -1101.0232865832 -9.60E-05
     5 OT DIIS     0.15E+00    0.9     0.00000909     -1101.0233423692 -5.58E-05

  *** SCF run converged in     5 steps ***


  Electronic density on regular grids:       -512.0000003316       -0.0000003316
  Core density on regular grids:              511.9999999981       -0.0000000019
  Total charge density on r-space grids:       -0.0000003335
  Total charge density g-space grids:          -0.0000003335

  Overlap energy of the core charge distribution:               0.00000042270337
  Self energy of the core charge distribution:              -2805.30499493854904
  Core Hamiltonian energy:                                    811.91272339965576
  Hartree energy:                                            1154.99784950278740
  Exchange-correlation energy:                               -262.62892075578151

  Total energy:                                             -1101.02334236918387

 ENERGY| Total FORCE_EVAL ( QS ) energy (a.u.):            -1101.023374986866656


 *******************************************************************************
 ENSEMBLE TYPE                =                                              NVE
 STEP NUMBER                  =                                               10
 TIME [fs]                    =                                         5.000000
 CONSERVED QUANTITY [hartree] =                              -0.110076505584E+04

                                              INSTANTANEOUS             AVERAGES
 CPU TIME [s]                 =                        6.68                12.47
 ENERGY DRIFT PER ATOM [K]    =         -0.102571586089E+02  -0.108947749112E+02
 POTENTIAL ENERGY[hartree]    =         -0.110102337499E+04  -0.110106681602E+04
 KINETIC ENERGY [hartree]     =          0.258319149898E+00   0.300700345369E+00
 TEMPERATURE [K]              =                     284.714              331.426
 *******************************************************************************


 -------------------------------------------------------------------------------
 -                                                                             -
 -                                DBCSR STATISTICS                             -
 -                                                                             -
 -------------------------------------------------------------------------------
 COUNTER                                      CPU                  ACC      ACC%
 number of processed stacks                288152                    0       0.0
 matmuls inhomo. stacks                         0                    0       0.0
 matmuls total                           90463908                    0       0.0
 flops   9 x   32 x   32                207618048                    0       0.0
 flops  22 x   32 x   32                253755392                    0       0.0
 flops  64 x   64 x   64              24394072064                    0       0.0
 flops   9 x    9 x   64              44168260608                    0       0.0
 flops  22 x    9 x   64              53835724800                    0       0.0
 flops   9 x   22 x   64              53885500416                    0       0.0
 flops  22 x   22 x   64              67007283200                    0       0.0
 flops  64 x   64 x  640             141264158720                    0       0.0
 flops 640 x   64 x   64             173811957760                    0       0.0
 flops   9 x   32 x    9             185405884416                    0       0.0
 flops   9 x   32 x   22             227871249408                    0       0.0
 flops  22 x   32 x    9             227871249408                    0       0.0
 flops  22 x   32 x   22             279130931200                    0       0.0
 flops 640 x   64 x  640             399297740800                    0       0.0
 flops total                        1878405386240                    0       0.0
 marketing flops                    2105104400384
 -------------------------------------------------------------------------------

 -------------------------------------------------------------------------------
 -                                                                             -
 -                         MESSAGE PASSING PERFORMANCE                         -
 -                                                                             -
 -------------------------------------------------------------------------------

 ROUTINE             CALLS  TOT TIME [s]  AVE VOLUME [Bytes]  PERFORMANCE [MB/s]
 MP_Group                5         0.000
 MP_Bcast             4259         0.008              44594.            23140.57
 MP_Allreduce         7688         0.640                416.                4.99
 MP_Gather              22         0.002                320.                3.23
 MP_Sync                54         0.001
 MP_Alltoall          9335         2.418             650515.             2511.15
 MP_ISendRecv        10710         0.066              94533.            15435.48
 MP_Wait            122866         7.711
 MP_comm_split          50         0.003
 MP_ISend            50468         0.156             428805.           138855.45
 MP_IRecv            50468         1.397             428766.            15492.80
 MP_Memory           51900         0.057
 -------------------------------------------------------------------------------


 -------------------------------------------------------------------------------
 -                                                                             -
 -                           R E F E R E N C E S                               -
 -                                                                             -
 -------------------------------------------------------------------------------
 
 CP2K version 2.6, the CP2K developers group (2014).
 CP2K is freely available from http://www.cp2k.org/ .

 Borstnik, U; VandeVondele, J; Weber, V; Hutter, J. 
 PARALLEL COMPUTING, 40 (5-6), 47-58 (2014). 
 Sparse matrix multiplication: The distributed block-compressed sparse
 row library.
 http://dx.doi.org/10.1016/j.parco.2014.03.012


 Hutter, J; Iannuzzi, M; Schiffmann, F; VandeVondele, J. 
 WILEY INTERDISCIPLINARY REVIEWS-COMPUTATIONAL MOLECULAR SCIENCE, 4 (1), 15-25 (2014). 
 CP2K: atomistic simulations of condensed matter systems.
 http://dx.doi.org/10.1002/wcms.1159


 Krack, M. 
 THEORETICAL CHEMISTRY ACCOUNTS, 114 (1-3), 145-152 (2005). 
 Pseudopotentials for H to Kr optimized for gradient-corrected
 exchange-correlation functionals.
 http://dx.doi.org/10.1007/s00214-005-0655-y


 VandeVondele, J; Krack, M; Mohamed, F; Parrinello, M; Chassaing, T;
 Hutter, J. COMPUTER PHYSICS COMMUNICATIONS, 167 (2), 103-128 (2005). 
 QUICKSTEP: Fast and accurate density functional calculations using a
 mixed Gaussian and plane waves approach.
 http://dx.doi.org/10.1016/j.cpc.2004.12.014


 Frigo, M; Johnson, SG. 
 PROCEEDINGS OF THE IEEE, 93 (2), 216-231 (2005). 
 The design and implementation of FFTW3.
 http://dx.doi.org/10.1109/JPROC.2004.840301


 VandeVondele, J; Hutter, J. 
 JOURNAL OF CHEMICAL PHYSICS, 118 (10), 4365-4369 (2003). 
 An efficient orbital transformation method for electronic structure
 calculations.
 http://dx.doi.org/10.1063/1.1543154


 Hartwigsen, C; Goedecker, S; Hutter, J. 
 PHYSICAL REVIEW B, 58 (7), 3641-3662 (1998). 
 Relativistic separable dual-space Gaussian pseudopotentials from H to Rn.
 http://dx.doi.org/10.1103/PhysRevB.58.3641


 Lippert, G; Hutter, J; Parrinello, M. 
 MOLECULAR PHYSICS, 92 (3), 477-487 (1997). 
 A hybrid Gaussian and plane wave density functional scheme.
 http://dx.doi.org/10.1080/002689797170220


 Goedecker, S; Teter, M; Hutter, J. 
 PHYSICAL REVIEW B, 54 (3), 1703-1710 (1996). 
 Separable dual-space Gaussian pseudopotentials.
 http://dx.doi.org/10.1103/PhysRevB.54.1703


 -------------------------------------------------------------------------------
 -                                                                             -
 -                                T I M I N G                                  -
 -                                                                             -
 -------------------------------------------------------------------------------
 SUBROUTINE                       CALLS  ASD         SELF TIME        TOTAL TIME
                                MAXIMUM       AVERAGE  MAXIMUM  AVERAGE  MAXIMUM
 CP2K                                 1  1.0    0.074    0.129  125.183  125.187
 qs_mol_dyn_low                       1  2.0    0.012    0.017  124.762  124.775
 qs_forces                           11  3.9    0.012    0.015  124.664  124.667
 qs_energies_scf                     11  4.9    0.003    0.006  115.408  115.411
 scf_env_do_scf                      11  5.9    0.001    0.001  106.247  106.248
 scf_env_do_scf_inner_loop          108  6.5    0.006    0.013   98.934   98.935
 velocity_verlet                     10  3.0    0.002    0.003   74.004   74.009
 rebuild_ks_matrix                  119  8.3    0.002    0.002   52.570   52.599
 qs_ks_build_kohn_sham_matrix       119  9.3    0.026    0.029   52.568   52.597
 qs_ks_update_qs_env                119  7.6    0.001    0.001   46.649   46.671
 sum_up_and_integrate               119 10.3    0.174    0.181   42.446   42.474
 integrate_v_rspace                 119 11.3   35.908   36.356   42.272   42.323
 qs_rho_update_rho                  119  7.7    0.001    0.002   41.722   41.731
 calculate_rho_elec                 119  8.7   33.812   34.190   41.721   41.730
 dbcsr_mm_cannon_multiply          2212 11.5    0.309    0.378   26.409   26.485
 cannon_multiply_low               2212 12.5    0.313    0.408   20.367   20.573
 qs_scf_loop_do_ot                  108  7.5    0.000    0.001   19.167   19.206
 ot_scf_mini                        108  8.5    0.007    0.008   16.955   16.972
 cannon_multiply_low_multrec       8848 13.5    0.020    0.022   13.241   13.376
 cannon_multiply_low_multrec_ma    8848 14.5   13.207   13.339   13.207   13.339
 ot_mini                            108  9.5    0.009    0.010    8.619    8.637
 fft_wrap_pw1pw2                   1201 11.6    0.014    0.015    7.960    8.460
 fft_wrap_pw1pw2_140                487 12.2    0.633    0.699    7.300    7.760
 init_scf_loop                       11  6.9    0.002    0.004    7.296    7.297
 density_rs2pw                      119  9.7    0.006    0.007    6.361    6.879
 fft3d_ps                          1201 13.6    4.253    5.014    6.110    6.797
 init_scf_run                        11  5.9    0.001    0.004    6.434    6.436
 scf_env_initial_rho_setup           11  6.9    0.001    0.003    6.433    6.435
 qs_ks_update_qs_env_forces          11  4.9    0.000    0.000    6.130    6.134
 wfi_extrapolate                     11  7.9    0.003    0.003    5.761    5.762
 rs_pw_transfer                     974 11.9    0.011    0.012    5.238    5.729
 potential_pw2rs                    119 12.3    0.023    0.025    4.862    4.895
 apply_preconditioner_dbcsr         119 10.7    0.000    0.001    4.653    4.682
 apply_single                       119 11.7    0.001    0.001    4.653    4.682
 cannon_multiply_low_metrocomm1    8848 13.5    3.631    4.454    3.631    4.454
 qs_ot_get_derivative               108 10.5    0.005    0.006    4.056    4.074
 dbcsr_make_images                 4424 12.5    0.012    0.014    3.619    3.767
 make_images                       4424 13.5    0.297    0.301    3.607    3.755
 build_core_hamiltonian_matrix_      11  4.9    0.000    0.000    2.975    3.114
 calculate_dm_sparse                119  8.6    0.002    0.002    2.465    2.499
 rs_distribute_matrix               249 10.9    1.637    2.244    1.954    2.460
 cannon_multiply_low_metrocomm3    8848 13.5    1.802    2.340    1.802    2.340
 qs_energies_init_hamiltonians       11  5.9    0.002    0.005    2.325    2.326
 rs_pw_transfer_RS2PW_140           130 11.5    1.702    2.203    1.702    2.203
 rs_pw_transfer_PW2RS_140           130 13.9    1.738    1.809    2.011    2.084
 cp_dbcsr_sm_fm_multiply             37  9.5    0.004    0.005    2.049    2.051
 qs_ot_get_p                        119  9.5    0.003    0.003    1.924    1.947
 cp_dbcsr_sm_fm_multiply_core        37 10.5    0.000    0.001    1.913    1.921
 build_core_ppl_forces               11  5.9    1.735    1.917    1.735    1.917
 prepare_preconditioner              11  7.9    0.000    0.000    1.892    1.895
 make_preconditioner                 11  8.9    0.000    0.001    1.892    1.895
 make_images_data                  4424 14.5    1.632    1.752    1.632    1.752
 make_full_inverse_cholesky          11  9.9    0.000    0.000    1.644    1.719
 build_core_hamiltonian_matrix       11  6.9    0.000    0.001    1.299    1.364
 qs_ot_get_derivative_diag           49 11.0    0.006    0.007    1.269    1.278
 make_images_pack                  4424 14.5    1.222    1.249    1.243    1.270
 x_to_yz                            595 15.2    0.991    1.269    0.991    1.269
 qs_ot_p2m_diag                      50 10.0    0.031    0.033    1.217    1.221
 dbcsr_finalize                    5680 12.7    0.024    0.025    1.095    1.209
 qs_ot_get_derivative_taylor         59 12.0    0.004    0.005    1.153    1.162
 dbcsr_merge_all                   4745 13.8    0.357    0.423    1.037    1.152
 cp_dbcsr_syevd                      50 11.0    0.003    0.003    1.058    1.058
 dbcsr_make_dense_low              5615 13.7    0.038    0.039    1.013    1.048
 cp_fm_syevd                         50 12.0    0.527    1.032    1.031    1.032
 qs_env_update_s_mstruct             11  6.9    0.000    0.000    0.965    1.023
 cp_fm_cholesky_invert               11 10.9    0.912    1.015    0.912    1.015
 buffer_matrices_ensure_size       4424 13.5    0.977    1.011    0.977    1.011
 cp_fm_syevd_base                    50 13.0    0.504    1.010    0.504    1.010
 qs_vxc_create                      119 10.3    0.003    0.005    0.906    0.991
 xc_vxc_pw_create                   119 11.3    0.232    0.298    0.903    0.988
 make_dense_data                   5615 14.7    0.907    0.941    0.941    0.975
 dbcsr_make_images_dense           3830 12.7    0.030    0.031    0.906    0.942
 rs_grid_zero                       617 10.8    0.801    0.933    0.801    0.933
 qs_ot_get_orbitals                 108  9.5    0.002    0.002    0.903    0.911
 yz_to_x                            606 14.1    0.860    0.907    0.860    0.907
 build_core_ppl                      11  7.9    0.795    0.866    0.795    0.866
 rs_pw_transfer_PW2RS_50            119 14.3    0.684    0.794    0.684    0.794
 xc_rho_set_and_dset_create         119 12.3    0.003    0.005    0.671    0.699
 pw_poisson_solve                   119 10.3    0.432    0.435    0.693    0.694
 make_basis_sm                       11  9.8    0.004    0.006    0.674    0.679
 build_kinetic_matrix                22  6.9    0.630    0.660    0.640    0.670
 xc_functional_eval                 119 13.3    0.632    0.656    0.632    0.656
 dbcsr_complete_redistribute        329 12.8    0.458    0.531    0.562    0.641
 fft_wrap_pw1pw2_50                 238 13.0    0.051    0.063    0.485    0.627
 rs_pw_transfer_RS2PW_50            119 11.7    0.567    0.624    0.567    0.624
 pw_gather_p                        606 13.1    0.597    0.622    0.597    0.622
 ot_scf_init                         11  7.9    0.002    0.002    0.602    0.610
 reorthogonalize_vectors             10  9.0    0.000    0.000    0.594    0.598
 build_overlap_matrix                22  6.9    0.533    0.557    0.553    0.577
 qs_create_task_list                 11  7.9    0.000    0.000    0.572    0.574
 generate_qs_task_list               11  8.9    0.313    0.342    0.571    0.574
 pw_scatter_p                       595 14.2    0.540    0.548    0.540    0.548
 cp_dbcsr_plus_fm_fm_t_native        22  8.9    0.002    0.002    0.502    0.510
 pw_copy                            952 12.4    0.488    0.503    0.488    0.503
 copy_fm_to_dbcsr                   352 11.3    0.033    0.037    0.395    0.476
 dbcsr_data_copyall                1534 12.4    0.437    0.473    0.437    0.473
 cp_fm_cholesky_decompose            22 10.9    0.458    0.466    0.458    0.466
 build_core_ppnl_forces              11  5.9    0.411    0.442    0.411    0.442
 calculate_rho_core                  11  7.9    0.028    0.032    0.377    0.438
 dbcsr_copy                        6369 11.3    0.044    0.046    0.405    0.419
 tree_to_linear_d                  1073 14.6    0.288    0.358    0.289    0.359
 dbcsr_trace_a_b_d                 1205 10.4    0.321    0.347    0.321    0.347
 qs_energies_compute_matrix_w        11  5.9    0.000    0.000    0.337    0.341
 calculate_w_matrix_ot               11  6.9    0.002    0.002    0.337    0.341
 make_images_sizes                 4424 14.5    0.223    0.320    0.223    0.320
 dbcsr_data_copy_aa2               2762 14.5    0.264    0.305    0.264    0.305
 transfer_fm_to_dbcsr                11  9.9    0.000    0.000    0.224    0.305
 calculate_first_density_matrix       1  7.0    0.001    0.001    0.296    0.297
 pw_axpy                            595 10.6    0.274    0.291    0.274    0.291
 calculate_ecore_overlap             22  5.9    0.145    0.289    0.145    0.289
 distribute_tasks                    11  9.9    0.061    0.063    0.258    0.277
 copy_dbcsr_to_fm                   306 11.3    0.040    0.042    0.258    0.266
 quickstep_create_force_env           1  2.0    0.018    0.025    0.249    0.254
 dbcsr_create_new                 33261 13.1    0.121    0.127    0.233    0.244
 dbcsr_make_untransposed_blocks    2655 12.4    0.200    0.222    0.215    0.236
 cp_fm_upper_to_full                 22 11.9    0.135    0.230    0.135    0.230
 dbcsr_data_release              137413 14.6    0.101    0.106    0.179    0.229
 dbcsr_make_dense                  1785 12.8    0.005    0.006    0.213    0.215
 dbcsr_add_d                       1789 11.2    0.002    0.002    0.214    0.215
 dbcsr_add_anytype                 1789 12.2    0.151    0.153    0.212    0.213
 dbcsr_add_wm_from_matrix           443 11.9    0.001    0.001    0.187    0.210
 evaluate_core_matrix_traces        119  8.3    0.001    0.001    0.208    0.209
 cp_gemm                             81  9.0    0.000    0.000    0.205    0.209
 cp_gemm_fm_gemm                     81 10.0    0.000    0.000    0.204    0.209
 calculate_ptrace_kp                238  9.3    0.002    0.002    0.207    0.209
 cp_fm_gemm                          81 11.0    0.204    0.208    0.204    0.208
 dbcsr_fill_wm_from_matrix          443 12.9    0.063    0.066    0.183    0.207
 fft_wrap_pw1pw2_20                 238 13.0    0.013    0.015    0.136    0.201
 dbcsr_make_undense                1785 12.8    0.160    0.162    0.197    0.200
 dbcsr_destroy                    27601 12.6    0.062    0.066    0.144    0.197
 integrate_v_core_rspace             11  7.9    0.014    0.016    0.182    0.195
 transfer_dbcsr_to_fm                11 10.9    0.004    0.007    0.145    0.153
 dbcsr_data_new                   78607 14.2    0.085    0.089    0.140    0.145
 build_core_ppnl                     11  7.9    0.131    0.142    0.131    0.142
 dbcsr_set_anytype                  603 10.9    0.129    0.133    0.133    0.137
 internal_data_deallocate         47265 15.5    0.077    0.129    0.077    0.129
 load_balance_distributed            11 10.9    0.000    0.000    0.107    0.124
 rs_pw_transfer_PW2RS_20            119 14.3    0.112    0.124    0.112    0.124
 compute_load_list                   22 11.9    0.061    0.065    0.101    0.117
 setup_rec_index                   4424 13.5    0.008    0.009    0.109    0.116
 qs_init_subsys                       1  3.0    0.013    0.029    0.113    0.116
 merge_index                       4745 14.8    0.106    0.113    0.106    0.113
 dbcsr_special_finalize            4424 14.5    0.010    0.011    0.107    0.112
 rs_pw_transfer_RS2PW_20            119 11.7    0.105    0.111    0.105    0.111
 call_rec_sort_index               4402 14.5    0.101    0.107    0.101    0.107
 get_fft_scratch                   1202 14.6    0.088    0.106    0.088    0.106
 external_control                   118  7.2    0.036    0.105    0.036    0.105
 fft3d_s                              1  2.0    0.000    0.000    0.083    0.101
 quick_finalize                    5096 15.3    0.025    0.027    0.095    0.100
 get_current_loads                  110 11.7    0.078    0.099    0.078    0.099
 qs_ot_p2m_taylor                    69 10.8    0.003    0.004    0.090    0.092
 create_qs_kind_set                   1  3.0    0.000    0.000    0.089    0.092
 read_qs_kind                         2  4.0    0.023    0.027    0.089    0.091
 dbcsr_sort_indices                9199 15.4    0.079    0.086    0.079    0.086
 dbcsr_mm_multrec_init             2212 13.5    0.007    0.008    0.079    0.086
 qs_env_setup                         1  4.0    0.004    0.006    0.082    0.085
 setup_buffer_matrices             4424 13.5    0.028    0.034    0.068    0.085
 qs_env_rebuild_pw_env               23  4.9    0.000    0.001    0.076    0.078
 dbcsr_mm_csr_init                 2212 14.5    0.045    0.049    0.071    0.078
 pw_env_rebuild                       1  6.0    0.006    0.009    0.075    0.077
 dbcsr_iterator_start             23975 14.5    0.046    0.049    0.064    0.067
 parser_read_line                  2671  5.0    0.002    0.002    0.066    0.067
 parser_read_line_low                 4  6.0    0.005    0.051    0.064    0.066
 lanczos_alg_serial                 119 10.5    0.056    0.058    0.064    0.066
 broadcast_input_information          4  7.0    0.060    0.064    0.060    0.064
 md_write_output                     11  3.9    0.003    0.040    0.007    0.064
 md_output                           10  3.0    0.000    0.001    0.008    0.063
 cannon_multiply_low_metrocomm2    6636 13.5    0.058    0.063    0.058    0.063
 pw_zero                            119 10.7    0.060    0.061    0.060    0.061
 internal_data_allocate           47265 15.3    0.056    0.059    0.056    0.059
 dbcsr_switch_data_area           18583 14.4    0.021    0.022    0.056    0.059
 cannon_multiply_low_metrocomm4    6636 13.5    0.051    0.057    0.051    0.057
 dbcsr_new_transposed               954 12.4    0.010    0.011    0.053    0.056
 build_qs_neighbor_lists             11  6.9    0.002    0.003    0.053    0.056
 update_particle_set                 20  4.0    0.051    0.056    0.051    0.056
 pw_grid_setup                        4  7.0    0.006    0.007    0.052    0.053
 dbcsr_make_index_exist           33261 14.1    0.047    0.053    0.047    0.053
 cp_dbcsr_alloc_block_from_nbl       66  7.9    0.014    0.019    0.043    0.048
 create_local_tasks                  11 10.9    0.047    0.048    0.047    0.048
 dbcsr_iterator_stop              23975 14.5    0.030    0.031    0.042    0.044
 dbcsr_work_create                 9821 13.6    0.023    0.025    0.034    0.036
 topology_control                     1  3.0    0.005    0.014    0.029    0.035
 pw_grid_sort                         4  8.0    0.019    0.019    0.033    0.033
 dbcsr_reserve_blocks                66  8.9    0.025    0.030    0.029    0.033
 fft_wrap_pw1pw2_10                 238 13.0    0.003    0.003    0.025    0.032
 calculate_atomic_block_dm            1  8.0    0.003    0.005    0.031    0.031
 dbcsr_redistribute                 145 13.7    0.022    0.025    0.027    0.030
 dbcsr_work_destroy_all            9821 14.6    0.018    0.019    0.028    0.029
 cp_fm_create                       325 11.5    0.025    0.027    0.025    0.027
 rs_pw_transfer_PW2RS_10            119 14.3    0.024    0.026    0.024    0.026
 cp_fm_triangular_multiply           11 10.8    0.021    0.026    0.021    0.026
 load_balance_replicated             11 10.9    0.006    0.006    0.025    0.025
 make_full_kinetic                   11  9.9    0.000    0.000    0.023    0.024
 write_trajectory                    44  4.9    0.001    0.004    0.003    0.024
 rs_pw_transfer_RS2PW_10            119 11.7    0.022    0.023    0.022    0.023
 atom_int_setup                       2  9.0    0.013    0.022    0.013    0.022
 dbcsr_make_dists_dense            1915 12.7    0.022    0.022    0.022    0.022
 fill_hash_tables                  2212 15.5    0.020    0.022    0.020    0.022
 rot_ana                              1  3.0    0.000    0.003    0.019    0.022
 diamat_all                           1  4.0    0.018    0.021    0.018    0.021
 write_particle_coordinates          11  5.9    0.001    0.020    0.001    0.020
 dbcsr_iterator_seek              23975 15.5    0.018    0.019    0.018    0.019
 dbcsr_scale_by_vector_anytype      208 10.2    0.015    0.016    0.017    0.017
 qs_env_rebuild_rho                  11  7.9    0.000    0.000    0.016    0.017
 qs_rho_rebuild                      11  8.9    0.001    0.001    0.015    0.017
 dbcsr_mm_multrec_finalize         2212 14.5    0.011    0.013    0.014    0.017
 init_qs_kind_set                     1  4.0    0.000    0.000    0.011    0.017
 init_qs_kind                         2  5.0    0.001    0.016    0.011    0.017
 wfs_update                          11  5.9    0.002    0.002    0.016    0.016
 init_gth_potential                   2  6.0    0.002    0.016    0.002    0.016
 pw_scale                           119 10.3    0.014    0.016    0.014    0.016
 connectivity_control                 1  4.0    0.001    0.008    0.014    0.016
 dbcsr_make_index_list             4424 12.5    0.015    0.016    0.015    0.016
 topology_generate_bond               1  5.0    0.000    0.004    0.012    0.015
 build_neighbor_lists_sac_ppl        11  7.9    0.014    0.015    0.014    0.015
 cp_fm_init_random                    1  8.0    0.013    0.015    0.013    0.015
 compute_max_radius                   1  7.0    0.014    0.015    0.014    0.015
 init_orb_basis_set                   2  6.0    0.002    0.015    0.008    0.015
 build_neighbor_lists_sab_all        11  7.9    0.014    0.015    0.014    0.015
 cp_dbcsr_cholesky_decompose         11 11.9    0.008    0.009    0.013    0.014
 sort_shells                          4  9.0    0.014    0.014    0.014    0.014
 dbcsr_scale_anytype               1898 13.1    0.013    0.013    0.014    0.014
 dbcsr_cholesky_invert               11 11.9    0.009    0.009    0.014    0.014
 build_neighbor_lists_sab_orb        11  7.9    0.012    0.013    0.012    0.013
 dbcsr_scale_d                      109 10.5    0.000    0.000    0.013    0.013
 init_cphi_and_sphi                   2  7.0    0.006    0.013    0.006    0.013
 dbcsr_finalize_lib                   1  2.0    0.012    0.013    0.012    0.013
 dbcsr_make_dbcsr_index           11101 15.3    0.012    0.012    0.012    0.012
 calculate_atom                       2  9.0    0.000    0.000    0.009    0.012
 calculate_atom_restricted            2 10.0    0.008    0.011    0.009    0.012
 dbcsr_index_prune_deleted         3830 13.7    0.010    0.011    0.010    0.011
 topology_connectivity_pack           1  4.0    0.000    0.000    0.006    0.011
 dbcsr_make_index_local_row        4424 12.5    0.009    0.010    0.009    0.010
 topology_connectivity_pack_12        1  5.0    0.001    0.010    0.001    0.010
 build_neighbor_lists_sap_ppnl       11  7.9    0.008    0.009    0.008    0.009
 dbcsr_get_data_size_used          5397 13.8    0.009    0.009    0.009    0.009
 write_restart                       10  4.0    0.001    0.008    0.003    0.009
 topology_connectivity_pack_13_       1  5.0    0.001    0.009    0.001    0.009
 atom_ppint_setup                     2  9.0    0.000    0.003    0.001    0.009
 topology_connectivity_pack_13        1  5.0    0.001    0.008    0.001    0.008
 pw_grid_assign                       4  8.0    0.008    0.008    0.008    0.008
 cp_dbcsr_multiply_local_d          734 11.1    0.005    0.005    0.008    0.008
 transpose_index_local              954 13.4    0.003    0.003    0.008    0.008
 sg_erf                               5 10.0    0.001    0.008    0.001    0.008
 setup_velocities                     1  3.0    0.000    0.001    0.001    0.008
 topology_coordinate_pack             1  4.0    0.000    0.000    0.001    0.007
 init_interaction_radii               1  4.0    0.003    0.007    0.003    0.007
 initialize_velocities                1  4.0    0.001    0.007    0.001    0.007
 topology_generate_bond_6             1  6.0    0.004    0.007    0.004    0.007
 topology_coordinate_pack_5           1  5.0    0.001    0.007    0.001    0.007
 optimize_load_list                  11 11.9    0.005    0.007    0.005    0.007
 topology_connectivity_pack_5         1  5.0    0.001    0.007    0.001    0.007
 topology_generate_bond_1             1  6.0    0.003    0.006    0.003    0.006
 topology_generate_bond_4             1  6.0    0.001    0.001    0.002    0.006
 cleanup_scf_loop                    11  7.9    0.000    0.000    0.003    0.006
 dbcsr_get_local_rows              3997 13.1    0.006    0.006    0.006    0.006
 calculate_atom_vxc_lda              12 11.0    0.001    0.006    0.001    0.006
 dbcsr_add_on_diag_anytype          138 11.8    0.001    0.002    0.005    0.006
 dbcsr_hadamard_product              98 12.0    0.003    0.003    0.006    0.006
 qs_scf_ensure_work_matrices         11  5.9    0.003    0.006    0.003    0.006
 topology_generate_bond_2             1  6.0    0.001    0.006    0.001    0.006
 dbcsr_get_local_cols              3997 13.1    0.005    0.006    0.005    0.006
 dbcsr_mm_sched_init               2212 15.5    0.003    0.004    0.005    0.006
 check_generate_mol                   1  7.0    0.001    0.006    0.001    0.006
 pw_pool_create_pw                 2416 11.8    0.003    0.004    0.004    0.005
 distribute_molecules_1d              1  4.0    0.001    0.005    0.001    0.005
 pw_pool_give_back_pw              2867 12.0    0.004    0.005    0.004    0.005
 topology_generate_bond_3             1  6.0    0.000    0.000    0.002    0.005
 qs_ks_did_change                   130  7.7    0.000    0.000    0.001    0.005
 topology_connectivity_pack_10        1  5.0    0.001    0.005    0.001    0.005
 build_fist_neighbor_lists            1  7.0    0.001    0.004    0.002    0.005
 scf_post_calculation_gpw            11  5.9    0.001    0.002    0.004    0.005
 coordinate_control                   1  4.0    0.000    0.000    0.003    0.004
 pw_grid_distribute                   4  8.0    0.004    0.004    0.004    0.004
 scf_env_release                      3  4.0    0.000    0.000    0.002    0.004
 destroy_preconditioner               1  3.0    0.000    0.000    0.002    0.004
 coordinate_control_READ_COORDI       1  5.0    0.000    0.001    0.003    0.004
 write_symmetry                       1  4.0    0.001    0.004    0.001    0.004
 ot_scf_read_input                   11  7.9    0.000    0.001    0.001    0.004
 distribute_molecules_2d              1  5.0    0.000    0.003    0.001    0.004
 build_neighbor_lists                 1  8.0    0.001    0.003    0.001    0.004
 cp_fm_to_fm_matrix                  21  7.9    0.003    0.004    0.003    0.004
 topology_connectivity_pack_6         1  5.0    0.000    0.003    0.000    0.003
 scf_c_write_parameters               1  4.0    0.001    0.003    0.001    0.003
 ot_readwrite_input                  11  8.9    0.001    0.003    0.001    0.003
 qs_scf_ensure_mos                   11  5.9    0.002    0.003    0.002    0.003
 topology_generate_molecule           1  5.0    0.000    0.003    0.000    0.003
 write_available_results             11  6.9    0.000    0.000    0.001    0.003
 dbcsr_mm_sched_finalize           2212 15.5    0.003    0.003    0.003    0.003
 read_atoms_input                     1  6.0    0.003    0.003    0.003    0.003
 cp_fm_scale_and_add                 24  9.0    0.003    0.003    0.003    0.003
 pw_create                          382 12.9    0.001    0.003    0.001    0.003
 dbcsr_get_global_col_map          2212 12.5    0.003    0.003    0.003    0.003
 write_mo_free_results               11  7.9    0.001    0.003    0.001    0.003
 dbcsr_get_global_row_map          2212 12.5    0.003    0.003    0.003    0.003
 mpools_rebuild_fm_pools              1  5.0    0.001    0.003    0.001    0.003
 update_input                         1  5.0    0.001    0.002    0.002    0.002
 build_neighbor_lists_sab_core       11  7.9    0.002    0.002    0.002    0.002
 qs_scf_post_charges                 11  6.9    0.000    0.000    0.001    0.002
 temperature_control                 10  3.0    0.000    0.002    0.000    0.002
 resp_fit                            11  7.9    0.001    0.002    0.001    0.002
 pw_grid_remap                        4  8.0    0.002    0.002    0.002    0.002
 create_grid_atom                     2  9.0    0.002    0.002    0.002    0.002
 atom2d_build                        11  7.9    0.000    0.002    0.000    0.002
 cp_fm_release                      330 11.2    0.001    0.002    0.001    0.002
 dbcsr_mm_hostdrv_init             2212 16.5    0.002    0.002    0.002    0.002
 dbcsr_get_conf_nstacks            2212 15.5    0.002    0.002    0.002    0.002
 fix_atom_control                    11  3.9    0.001    0.002    0.001    0.002
 qs_scf_print_scf_summary            11  7.9    0.000    0.002    0.000    0.002
 qs_scf_loop_print                  108  7.5    0.002    0.002    0.002    0.002
 external_e_potential                22  5.9    0.001    0.002    0.001    0.002
 restraint_control                   11  3.9    0.001    0.001    0.001    0.002
 topology_connectivity_pack_4         1  5.0    0.000    0.002    0.000    0.002
 write_mo_set_to_restart            108  7.5    0.002    0.002    0.002    0.002
 rs_grid_create_descriptor            4  7.0    0.001    0.002    0.001    0.002
 dbcsr_verify_matrix                 22  9.9    0.001    0.001    0.001    0.001
 update_motion                        1  6.0    0.000    0.000    0.000    0.001
 update_motion_AVERAGES               1  7.0    0.000    0.001    0.000    0.001
 update_subsys                        1  6.0    0.000    0.001    0.001    0.001
 set_mo_occupation_1                120  8.5    0.001    0.001    0.001    0.001
 init_cube_info                       4  7.0    0.001    0.001    0.001    0.001
 read_qs_section                      1  4.0    0.001    0.001    0.001    0.001
 topology_connectivity_pack_11        1  5.0    0.000    0.001    0.000    0.001
 write_dft_control                    1  4.0    0.000    0.001    0.000    0.001
 scf_c_create                         1  4.0    0.000    0.001    0.000    0.001
 compute_averages                    10  5.0    0.001    0.001    0.001    0.001
 write_qs_control                     1  4.0    0.001    0.001    0.001    0.001
 section_coord_val_set                1  7.0    0.001    0.001    0.001    0.001
 free_energy_evaluate                10  3.0    0.001    0.001    0.001    0.001
 calculate_ecore_efield              22  5.9    0.000    0.001    0.000    0.001
 write_mo_dependent_results          11  7.9    0.000    0.001    0.000    0.001
 dump_info_core_hamiltonian          22  6.9    0.001    0.001    0.001    0.001
 qs_efield_berry_phase              119 10.3    0.001    0.001    0.001    0.001
 connectivity_control_check_ele       1  5.0    0.000    0.001    0.000    0.001
 topology_connectivity_pack_2         1  5.0    0.000    0.001    0.000    0.001
 create_local_fixd_list              11  4.9    0.000    0.001    0.000    0.001
 pw_env_create                        1  6.0    0.000    0.000    0.000    0.000
 qs_scf_post_xray                    11  6.9    0.000    0.000    0.000    0.000
 topology_connectivity_pack_14        1  5.0    0.000    0.000    0.000    0.000
 read_binary_coordinates              1  4.0    0.000    0.000    0.000    0.000
 qs_energies_properties              11  5.9    0.000    0.000    0.000    0.000
 dbcsr_filter_anytype               163  9.7    0.000    0.000    0.000    0.000
 topology_coordinate_pack_1           1  5.0    0.000    0.000    0.000    0.000
 topology_coordinate_pack_7a          1  5.0    0.000    0.000    0.000    0.000
 topology_molecules_check             1  5.0    0.000    0.000    0.000    0.000
 metadyn_read                         1  2.0    0.000    0.000    0.000    0.000
 external_c_potential                22  5.9    0.000    0.000    0.000    0.000
 make_basic_distribution              1  6.0    0.000    0.000    0.000    0.000
 write_structure_data                12  4.8    0.000    0.000    0.000    0.000
 create_destination_list             11 11.9    0.000    0.000    0.000    0.000
 contract2add                        10 10.0    0.000    0.000    0.000    0.000
 scf_c_read_parameters                1  4.0    0.000    0.000    0.000    0.000
 contract2                           15 10.0    0.000    0.000    0.000    0.000
 qs_energies_init_kg                 11  5.9    0.000    0.000    0.000    0.000
 cp_fm_set_all                        1  8.0    0.000    0.000    0.000    0.000
 topology_generate_molecule_PAR       1  6.0    0.000    0.000    0.000    0.000
 topology_set_atm_mass                1  5.0    0.000    0.000    0.000    0.000
 read_topology_section                1  4.0    0.000    0.000    0.000    0.000
 qs_scf_post_molopt                  11  6.9    0.000    0.000    0.000    0.000
 topology_muc                         1  5.0    0.000    0.000    0.000    0.000
 fist_neighbor_init                   1  9.0    0.000    0.000    0.000    0.000
 topology_constraint_pack             1  4.0    0.000    0.000    0.000    0.000
 atom_relint_setup                    2  9.0    0.000    0.000    0.000    0.000
 topology_connectivity_pack_3         1  5.0    0.000    0.000    0.000    0.000
 cp_fm_scale                         10  9.0    0.000    0.000    0.000    0.000
 calculate_ecore_self                22  5.9    0.000    0.000    0.000    0.000
 topology_constraint_pack_3           1  5.0    0.000    0.000    0.000    0.000
 sort_neighbor_lists                  1  8.0    0.000    0.000    0.000    0.000
 topology_connectivity_pack_7         1  5.0    0.000    0.000    0.000    0.000
 topology_coordinate_pack_2           1  5.0    0.000    0.000    0.000    0.000
 update_motion_NPT                    1  7.0    0.000    0.000    0.000    0.000
 topology_connectivity_pack_9         1  5.0    0.000    0.000    0.000    0.000
 write_molecule_kind_set              1  4.0    0.000    0.000    0.000    0.000
 -------------------------------------------------------------------------------

  **** **** ******  **  PROGRAM ENDED AT                 2017-10-20 13:12:53.786
 ***** ** ***  *** **   PROGRAM RAN ON                                      b381
 **    ****   ******    PROGRAM RAN BY                                    ongari
 ***** **    ** ** **   PROGRAM PROCESS ID                                 65635
  **** **  *******  **  PROGRAM STOPPED IN /scratch/ongari/1_benchmark_official/
                                           cp2k/01_bellatrix_cp2k-2.6_deprecated
                                           -intel/ncores_016
