     192
 i =        0, time =        0.000, E =     -1101.0310069705
  O        12.2353220000        1.3766420000       10.8698800000
  O         6.4453900000        3.7069400000        8.6507940000
  O         0.0859770000        2.1813220000        8.2766630000
  O        12.0525540000        2.6713660000        2.1471990000
  O        12.2500360000        4.1909300000       12.0920140000
  O         7.1874220000        0.9590620000        4.7334690000
  O         8.3464570000        7.2100400000        4.6676440000
  O        12.3615460000       11.5278750000        8.1068870000
  O         3.2999840000        4.4408160000        9.1932750000
  O         2.8558290000        3.7599090000        6.5528150000
  O         1.3924940000        6.3627530000        0.5861720000
  O         1.8586450000        8.6940130000        2.0687380000
  O         3.7702310000       12.0945190000        8.6521830000
  O         6.4325080000        3.6698280000        2.7724180000
  O         1.9987240000        1.8202170000        4.8764400000
  O         8.2485810000        2.4047300000        6.9313030000
  O         5.7538140000        3.3600290000       12.4615340000
  O        11.3222120000        5.6492390000        2.2367980000
  O         4.2773180000        2.1139560000       10.5908080000
  O         5.4050150000        3.3492470000        5.4847020000
  O         6.4932780000       11.8699580000        0.6849120000
  O         3.2752500000        2.3465760000        2.4252410000
  O         7.9810030000        6.3525120000        7.5079700000
  O         5.9859900000        6.5128540000       12.1946480000
  O        10.6367140000       11.8568720000       12.2095400000
  O         9.3122830000        3.6703840000        3.5085940000
  O         1.1068850000        5.8303010000        6.6386950000
  O         8.0080070000        3.3263630000       10.8698180000
  O        12.4030000000        9.6874050000       11.7619010000
  O         4.2197820000        7.0853150000        8.1534700000
  O         3.7815570000        8.2038210000       11.5632720000
  O        11.0888980000        4.5320810000        7.8094750000
  O        10.3875480000        8.4088900000        1.0178820000
  O         1.9790160000        6.4180910000       10.3741590000
  O         4.6605470000        0.5496660000        5.6174030000
  O         8.7458800000       12.2562570000        8.0893830000
  O         2.6620410000       10.4898900000        0.0929800000
  O         7.2416610000       10.4718150000        4.2269460000
  O         2.2768270000        0.2766470000       10.8104170000
  O         8.8877330000        0.9468770000        1.3338850000
  O         1.9435540000        8.0885520000        7.5676500000
  O         9.6679420000        8.0567590000        9.8688470000
  O        10.9054910000        8.3396380000        6.4847820000
  O         3.5077330000        4.8624020000        1.5574390000
  O         8.0104570000        8.6428460000       12.0559690000
  O         8.3744460000       10.0359320000        6.6903090000
  O         5.6352470000        6.0768750000        5.5639930000
  O        11.7284340000        1.6019060000        5.0794750000
  O         9.7711340000        9.8141140000        3.5487030000
  O         3.9443550000       10.5634500000        4.6875360000
  O         0.8903570000        6.3822870000        4.0658060000
  O         6.8624470000        6.4251820000        2.4882020000
  O         3.8139630000        6.5951220000        3.7626490000
  O         6.5624480000        8.2954630000        8.8071820000
  O         9.8094550000        0.1433250000        3.8865530000
  O         4.1170740000       11.6612250000        2.2216790000
  O         5.2953170000        8.7355610000        2.7631830000
  O         9.9719990000        5.3793390000        5.3403780000
  O        12.2547080000        8.6438740000        3.9571160000
  O         2.3442740000       10.7612740000        6.8291620000
  O         7.0134160000        0.6434880000       10.5187970000
  O         5.1523490000       10.2336240000       10.3593880000
  O        11.1842780000        5.8840640000       10.2982790000
  O        12.2523350000        8.9741420000        9.0708310000
  H        12.4151390000        2.2331250000       11.2576110000
  H        11.9224760000        1.5737990000        9.9869940000
  H         5.6081920000        3.3715430000        8.9714820000
  H         6.7312260000        3.0608510000        8.0049620000
  H        -0.1692050000        1.5655940000        7.5896450000
  H        -0.4554400000        2.9547710000        8.1189390000
  H        12.1251680000        2.8264630000        1.2054430000
  H        12.8888280000        2.9697610000        2.5047450000
  H        11.5532550000        4.3866130000       11.4655660000
  H        12.8182810000        4.9608080000       12.0671510000
  H         7.0494950000        1.7723440000        4.2478980000
  H         6.3530190000        0.7981450000        5.1740470000
  H         7.7818500000        7.3848520000        5.4205660000
  H         9.1032030000        6.7540170000        5.0358980000
  H        12.7712320000       11.7886450000        8.9317440000
  H        12.0180350000       10.6506520000        8.2763340000
  H         3.5572450000        3.7925290000        9.8488460000
  H         2.5438440000        4.8841020000        9.5779580000
  H         2.3202350000        4.5212500000        6.3298130000
  H         2.8721280000        3.7499630000        7.5098240000
  H         1.2096850000        7.1213910000        1.1405010000
  H         2.2388850000        6.0388010000        0.8942450000
  H         2.7631090000        8.8563530000        2.3367350000
  H         1.3293790000        9.0473690000        2.7837550000
  H         4.3156390000       11.5333880000        9.2034490000
  H         3.0987420000       12.4330430000        9.2444120000
  H         5.9873690000        3.4489740000        3.5905300000
  H         5.8130960000        3.4193440000        2.0869850000
  H         1.0571260000        1.6753440000        4.9693790000
  H         2.2484960000        2.2921190000        5.6708920000
  H         8.5082640000        1.6533370000        7.4644110000
  H         8.0660150000        2.0345970000        6.0676460000
  H         5.1978350000        2.9155420000       11.8215720000
  H         6.6309000000        3.3299810000       12.0793710000
  H        10.7889860000        6.4366720000        2.1279330000
  H        11.6579230000        5.4636020000        1.3598320000
  H         3.5444760000        1.6349580000       10.9777650000
  H         4.7557700000        1.4550540000       10.0876550000
  H         4.4653710000        3.3754590000        5.6652940000
  H         5.6826630000        4.2644300000        5.5244980000
  H         6.1748150000       11.7786760000        1.5829540000
  H         5.7136400000       12.0899240000        0.1749990000
  H         3.4760760000        1.4987080000        2.0289830000
  H         2.7302290000        2.1342950000        3.1829490000
  H         7.1196240000        5.9364500000        7.4740300000
  H         8.5364920000        5.7994050000        6.9586650000
  H         5.9094990000        5.7174770000       11.6676210000
  H         6.1254020000        6.1967580000       13.0873300000
  H        11.2034990000       12.5135360000       11.8048440000
  H        10.2609300000       12.3001530000       12.9701450000
  H         9.9850360000        3.9276850000        2.8781720000
  H         8.5455840000        3.4683290000        2.9723310000
  H         1.3998820000        6.6200920000        7.0932460000
  H         0.9635610000        6.1125230000        5.7353450000
  H         8.0673630000        3.6740020000        9.9799550000
  H         8.0007370000        2.3759590000       10.7561900000
  H        11.8216290000       10.4025100000       12.0204820000
  H        12.2068540000        8.9832420000       12.3798920000
  H         3.4614730000        7.6064850000        7.8896880000
  H         3.8444780000        6.3047110000        8.5609460000
  H         3.1798840000        7.5856140000       11.1484940000
  H         4.4019570000        7.6520300000       12.0395730000
  H        11.5737770000        5.0532110000        7.1695150000
  H        10.3420760000        4.1860830000        7.3208310000
  H        10.0656400000        8.9191940000        1.7609810000
  H         9.6295850000        8.3224990000        0.4397290000
  H         1.3963020000        6.5460790000        9.6256300000
  H         1.4055160000        6.4797590000       11.1380490000
  H         4.0240080000        1.2325180000        5.4058280000
  H         4.7368580000        0.5798810000        6.5710770000
  H         9.4522930000       12.3133810000        8.7327720000
  H         8.9765590000       11.5027880000        7.5459650000
  H         1.8347010000       10.0123110000        0.1534620000
  H         3.2951970000        9.8364030000       -0.2041750000
  H         7.0567240000       11.4017020000        4.0952640000
  H         6.4990380000       10.0202870000        3.8258650000
  H         1.3655410000        0.4873380000       11.0138870000
  H         2.5015910000       -0.4281310000       11.4178710000
  H         8.6442790000        1.8123620000        1.0054090000
  H         8.1426740000        0.3880300000        1.1129550000
  H         1.2726590000        8.3650630000        8.1918880000
  H         2.1424850000        8.8777680000        7.0638670000
  H         8.9614930000        7.8261920000        9.2655230000
  H         9.2271020000        8.4876540000       10.6011180000
  H        10.1501440000        7.7589340000        6.3927680000
  H        10.5960820000        9.1879880000        6.1672900000
  H         3.4631060000        4.0961880000        2.1294140000
  H         3.9194610000        4.5398010000        0.7557910000
  H         7.4189980000        9.3949590000       12.0288760000
  H         7.4304130000        7.8830950000       12.1065460000
  H         7.9729050000       10.2203340000        5.8411960000
  H         7.6751110000        9.6314980000        7.2037250000
  H         5.3324460000        6.3813360000        6.4194730000
  H         5.0000250000        6.4341860000        4.9434660000
  H        11.5750780000        2.2711670000        4.4125400000
  H        11.2198020000        0.8470300000        4.7833570000
  H         8.8653420000        9.7215160000        3.8439980000
  H        10.0007320000       10.7192850000        3.7588980000
  H         3.1861960000       10.4763970000        5.2653330000
  H         4.4073310000       11.3351280000        5.0137230000
  H         0.5581870000        7.2559360000        3.8593310000
  H         0.3416720000        5.7893830000        3.5523460000
  H         7.4599330000        6.5260490000        3.2291930000
  H         6.6962280000        5.4837390000        2.4403720000
  H         3.8648720000        6.3130070000        2.8493850000
  H         2.8764190000        6.6212010000        3.9538620000
  H         5.6315290000        8.0791450000        8.7539970000
  H         7.0032960000        7.5682450000        8.3678220000
  H         9.6154130000        0.5279020000        3.0317550000
  H         8.9629850000        0.1093660000        4.3321620000
  H         3.8258540000       11.1391820000        1.4740870000
  H         4.0639880000       11.0632320000        2.9672110000
  H         5.7843910000        7.9145580000        2.7084860000
  H         4.7804610000        8.6551670000        3.5661100000
  H        10.8806590000        5.4446640000        5.0466070000
  H         9.5933310000        4.6879910000        4.7973500000
  H        11.5623170000        8.9601340000        3.3767650000
  H        11.9260840000        8.8169480000        4.8393200000
  H         2.8568740000       11.2979810000        7.4336600000
  H         1.4923320000       11.1955170000        6.7860330000
  H         7.1458200000        0.0902000000        9.7490090000
  H         7.2272750000        0.0776900000       11.2606650000
  H         4.6620210000        9.5384300000       10.7981550000
  H         5.9945370000        9.8334720000       10.1429850000
  H        10.5442990000        6.5958570000       10.3014450000
  H        11.2817500000        5.6530820000        9.3744940000
  H        12.1030200000        8.8411640000       10.0069160000
  H        11.4915920000        8.5762210000        8.6475570000
     192
 i =        1, time =        0.500, E =     -1101.0392895642
  O        12.2384007026        1.3746361498       10.8693534305
  O         6.4464768577        3.7062252741        8.6497782773
  O         0.0851752616        2.1799369934        8.2746638322
  O        12.0564897077        2.6684142661        2.1486615840
  O        12.2537655584        4.1893097846       12.0925832163
  O         7.1888048130        0.9576039243        4.7361532924
  O         8.3463648265        7.2087782274        4.6692032898
  O        12.3584284166       11.5256699614        8.1051810984
  O         3.2976485999        4.4428056604        9.1911958762
  O         2.8554586231        3.7639240071        6.5513182349
  O         1.3914851037        6.3661001877        0.5846189027
  O         1.8600496603        8.6933410293        2.0711222714
  O         3.7702489946       12.0953713373        8.6495170864
  O         6.4311506029        3.6694294645        2.7741773512
  O         1.9985228522        1.8238466192        4.8763368975
  O         8.2524880145        2.4061206517        6.9319034977
  O         5.7535406237        3.3571899950       12.4638916306
  O        11.3214980938        5.6500619922        2.2376000369
  O         4.2784815489        2.1141848597       10.5903293529
  O         5.4037146870        3.3509684311        5.4855366562
  O         6.4945546039       11.8697588042        0.6889904405
  O         3.2729308022        2.3467525684        2.4242409322
  O         7.9839523369        6.3526956554        7.5067931008
  O         5.9802545766        6.5124770518       12.1948560282
  O        10.6345002472       11.8584018196       12.2081329929
  O         9.3152558390        3.6724420996        3.5112452233
  O         1.1078388324        5.8270663142        6.6396710331
  O         8.0086986123        3.3265609652       10.8699243896
  O        12.3996618408        9.6869258595       11.7629714820
  O         4.2173046864        7.0854246954        8.1525827008
  O         3.7813282076        8.2065869790       11.5650832754
  O        11.0874659899        4.5333012074        7.8115573898
  O        10.3917938108        8.4111561269        1.0202487802
  O         1.9797471065        6.4162033174       10.3725302150
  O         4.6644185723        0.5510791158        5.6159243604
  O         8.7432287841       12.2541762470        8.0896777360
  O         2.6585443905       10.4917816569        0.0919652063
  O         7.2407285709       10.4754547110        4.2279893764
  O         2.2769117815        0.2761329022       10.8101588956
  O         8.8847429461        0.9467839116        1.3341271219
  O         1.9439221901        8.0887246424        7.5642660120
  O         9.6669372281        8.0545682950        9.8675646956
  O        10.9044241011        8.3386943363        6.4838756729
  O         3.5081883081        4.8613090120        1.5571251635
  O         8.0071330822        8.6395197209       12.0556778633
  O         8.3739506505       10.0349032990        6.6882543389
  O         5.6365762393        6.0773481052        5.5597549927
  O        11.7294455104        1.6049500891        5.0794505379
  O         9.7680556893        9.8134951699        3.5477711913
  O         3.9456574823       10.5623265847        4.6879306187
  O         0.8915994005        6.3820646471        4.0656939437
  O         6.8646221884        6.4232181655        2.4903042700
  O         3.8150430121        6.5994545048        3.7646558046
  O         6.5626071955        8.2958335987        8.8075692703
  O         9.8063311195        0.1426745550        3.8830372471
  O         4.1153869011       11.6594470455        2.2210896142
  O         5.2977650167        8.7352931635        2.7619219106
  O         9.9756148784        5.3784903974        5.3431423387
  O        12.2551987895        8.6436409059        3.9597620347
  O         2.3448375213       10.7602142729        6.8281639156
  O         7.0123170392        0.6449962768       10.5208855816
  O         5.1532833039       10.2315634826       10.3595056319
  O        11.1839335372        5.8843585096       10.2974813382
  O        12.2544034761        8.9725138971        9.0722191381
  H        12.4078499834        2.2422788479       11.2473217556
  H        11.9234371297        1.5675119911        9.9954724770
  H         5.6011589402        3.3777486510        8.9821821795
  H         6.7422464280        3.0658718085        8.0163645407
  H        -0.1652920258        1.5666835602        7.5901252375
  H        -0.4482143130        2.9592305269        8.0995755080
  H        12.1311017478        2.8349006899        1.2222109117
  H        12.8891885111        2.9625521214        2.5008608292
  H        11.5569975084        4.3732880570       11.4697037261
  H        12.8140345834        4.9735854278       12.0609391746
  H         7.0422604424        1.7685392460        4.2432567586
  H         6.3443042602        0.7832234664        5.1719787615
  H         7.7727853731        7.3729393572        5.4363285340
  H         9.0996716610        6.7533014341        5.0241916022
  H        12.7748195686       11.7864792573        8.9231177351
  H        12.0193061185       10.6655897005        8.2725706824
  H         3.5537289857        3.7981094438        9.8654119326
  H         2.5269147294        4.8884916924        9.5708214073
  H         2.3176618051        4.5088018420        6.3292812927
  H         2.8673295277        3.7597037068        7.5186587109
  H         1.2012353649        7.1197824609        1.1371821593
  H         2.2371466986        6.0416301953        0.9028722818
  H         2.7634782791        8.8692786207        2.3354598061
  H         1.3350442049        9.0414004310        2.7898672152
  H         4.3303062507       11.5408684751        9.1959773417
  H         3.0950149393       12.4384876084        9.2437325961
  H         5.9808126653        3.4487684786        3.5840989859
  H         5.8161373903        3.4201757912        2.0857910906
  H         1.0517525714        1.6749001362        4.9535316420
  H         2.2461671896        2.2993041972        5.6646527746
  H         8.5002242293        1.6535107590        7.4758466317
  H         8.0684552084        2.0358364908        6.0645131282
  H         5.2030218510        2.9183275241       11.8081072871
  H         6.6358354724        3.3360827745       12.0710075380
  H        10.7875395805        6.4431099068        2.1275977186
  H        11.6584999916        5.4554048292        1.3599953694
  H         3.5335669810        1.6268855561       10.9746183063
  H         4.7654259593        1.4477589422       10.0838616717
  H         4.4655699268        3.3671335641        5.6628747583
  H         5.6860677791        4.2638079119        5.5239843969
  H         6.1960065102       11.7861122551        1.5845593795
  H         5.6988959075       12.0944381975        0.1862665649
  H         3.4844736556        1.4808131845        2.0397120172
  H         2.7162183349        2.1421429383        3.1836584465
  H         7.1170738823        5.9357642974        7.4803717914
  H         8.5471296862        5.7949715433        6.9670220795
  H         5.9181393633        5.7057282718       11.6627523599
  H         6.1372604435        6.2078334725       13.0951321595
  H        11.1822330037       12.5095911618       11.8037169320
  H        10.2632088318       12.2991453302       12.9790661385
  H         9.9683085128        3.9372231070        2.8596357511
  H         8.5503997315        3.4668157606        2.9603398322
  H         1.4005444500        6.6137193534        7.0910442887
  H         0.9689773910        6.1200375647        5.7349463329
  H         8.0663180792        3.6802851605        9.9650505933
  H         8.0117983223        2.3671190486       10.7583164479
  H        11.8232527750       10.4000218737       12.0260523574
  H        12.2051195475        8.9744376067       12.3843395433
  H         3.4606375346        7.5997584918        7.8877715013
  H         3.8479528441        6.3179325610        8.5560599120
  H         3.1717475098        7.5869551235       11.1422640014
  H         4.4129476734        7.6472997472       12.0498276656
  H        11.5672639502        5.0425515787        7.1595589560
  H        10.3445705030        4.1832719678        7.3218100296
  H        10.0737755318        8.9084837630        1.7537966956
  H         9.6241383647        8.3134109286        0.4443705349
  H         1.3866410430        6.5583283184        9.6259104333
  H         1.4036378310        6.4770527952       11.1398639121
  H         4.0386560408        1.2419218071        5.3963266646
  H         4.7340191234        0.5881439866        6.5802769748
  H         9.4511225085       12.3153143485        8.7319901410
  H         8.9682075885       11.4967543866        7.5522543279
  H         1.8312915637       10.0169088026        0.1531922627
  H         3.3003257708        9.8474039511       -0.2036351558
  H         7.0556754455       11.4056167934        4.0974563305
  H         6.5107932017       10.0243914893        3.8317456780
  H         1.3682977406        0.4902310049       11.0307407864
  H         2.5001244258       -0.4266110517       11.4153856448
  H         8.6578535518        1.8178639331        1.0053468660
  H         8.1466989438        0.3856071694        1.1034275938
  H         1.2584012652        8.3619228616        8.1879653735
  H         2.1357585126        8.8806119669        7.0599372432
  H         8.9607059375        7.8271055365        9.2674963837
  H         9.2129931849        8.4823151736       10.5967680118
  H        10.1538175102        7.7551502782        6.4005283070
  H        10.5957657215        9.1841058970        6.1657665694
  H         3.4703357737        4.1071939035        2.1134696795
  H         3.9287527341        4.5450033069        0.7564951978
  H         7.4144006405        9.3882906315       12.0269133740
  H         7.4196253995        7.8701271524       12.1023211825
  H         7.9675116847       10.2110446804        5.8531124576
  H         7.6700464261        9.6143080258        7.2155716114
  H         5.3316051466        6.3932257994        6.4145205289
  H         4.9928052767        6.4237281573        4.9414155912
  H        11.5748881379        2.2514556495        4.4091073659
  H        11.2227529071        0.8377473911        4.7838780627
  H         8.8826981037        9.7218239504        3.8512337691
  H         9.9959287582       10.7287436291        3.7679139071
  H         3.1848656555       10.4828769643        5.2601376295
  H         4.3990307298       11.3446524166        5.0188044766
  H         0.5463122922        7.2567900819        3.8503368508
  H         0.3306592030        5.7799221845        3.5394496309
  H         7.4706324935        6.5267161762        3.2305611054
  H         6.6966744211        5.4808189340        2.4423241657
  H         3.8611984608        6.3135940425        2.8384939725
  H         2.8652690933        6.6153054710        3.9541114972
  H         5.6327151537        8.0742514968        8.7446984169
  H         6.9920457197        7.5679580509        8.3771320232
  H         9.6107764199        0.5512708699        3.0289719924
  H         8.9597925622        0.1061423150        4.3410028708
  H         3.8355954904       11.1456991540        1.4642989534
  H         4.0551366312       11.0494673130        2.9681873215
  H         5.8017644621        7.9150480003        2.7188577184
  H         4.7803567122        8.6636692582        3.5677124997
  H        10.8756447203        5.4517803378        5.0377890550
  H         9.5879811972        4.6927782852        4.7977382783
  H        11.5548123884        8.9665995026        3.3706317466
  H        11.9348251869        8.8167777301        4.8383067412
  H         2.8610156779       11.3000574417        7.4326963819
  H         1.4774635435       11.1901370331        6.7827380753
  H         7.1497134805        0.0931982843        9.7436603110
  H         7.2200786489        0.0868660669       11.2648147398
  H         4.6920289984        9.5288952198       10.7971697532
  H         6.0068240780        9.8271942578       10.1528949959
  H        10.5524256645        6.6026112795       10.3042347256
  H        11.2794174179        5.6543776769        9.3819267393
  H        12.1135610260        8.8528807018        9.9990689736
  H        11.4875687694        8.5845770213        8.6469380554
     192
 i =        2, time =        1.000, E =     -1101.0525539061
  O        12.2414902085        1.3724191780       10.8691091500
  O         6.4475376880        3.7057062357        8.6489076915
  O         0.0844793798        2.1784723192        8.2728540517
  O        12.0602424719        2.6653531747        2.1503607649
  O        12.2575587377        4.1874361535       12.0933297718
  O         7.1904420654        0.9560231255        4.7388021144
  O         8.3460387060        7.2077677991        4.6706018692
  O        12.3553218357       11.5238030907        8.1032355722
  O         3.2953594237        4.4447990190        9.1889694169
  O         2.8553175606        3.7675959271        6.5497185978
  O         1.3903085560        6.3693199665        0.5828252180
  O         1.8613967673        8.6925741018        2.0733543178
  O         3.7703338516       12.0963455752        8.6465618150
  O         6.4300793842        3.6691113376        2.7758677425
  O         1.9985241395        1.8273534117        4.8759669013
  O         8.2563757784        2.4077488382        6.9326269996
  O         5.7532112168        3.3545088787       12.4665141710
  O        11.3207699813        5.6507931353        2.2386025706
  O         4.2797196681        2.1145983243       10.5898722714
  O         5.4026354514        3.3523900710        5.4862004268
  O         6.4960542616       11.8695884056        0.6928296971
  O         3.2706855218        2.3470260416        2.4231154671
  O         7.9869095285        6.3530453507        7.5057162389
  O         5.9744715452        6.5122412185       12.1949839607
  O        10.6322109867       11.8595954447       12.2067424417
  O         9.3182216756        3.6744498040        3.5139827564
  O         1.1086650649        5.8234669086        6.6407548945
  O         8.0094800812        3.3268202924       10.8701853539
  O        12.3965761422        9.6862795068       11.7639058076
  O         4.2152584169        7.0856020450        8.1516203726
  O         3.7811722071        8.2095129400       11.5669524512
  O        11.0860841234        4.5344706818        7.8138606267
  O        10.3963160036        8.4132111256        1.0224886434
  O         1.9806042786        6.4143012039       10.3707822175
  O         4.6684696808        0.5523680968        5.6144735212
  O         8.7404596070       12.2523395141        8.0901020644
  O         2.6551925666       10.4940485901        0.0909815989
  O         7.2400432997       10.4791094202        4.2292015775
  O         2.2771767178        0.2757875879       10.8097486331
  O         8.8819670834        0.9466943232        1.3345015615
  O         1.9443607894        8.0886928613        7.5608658751
  O         9.6661399288        8.0523288219        9.8662213726
  O        10.9036322727        8.3377263816        6.4830333032
  O         3.5086023823        4.8606765574        1.5566729231
  O         8.0039867561        8.6361509456       12.0553382269
  O         8.3736331714       10.0338148781        6.6864509572
  O         5.6382033889        6.0777016221        5.5556357792
  O        11.7306495152        1.6079444817        5.0796719927
  O         9.7653685769        9.8127510431        3.5467168369
  O         3.9471207689       10.5609838524        4.6880351096
  O         0.8930254591        6.3815660419        4.0656942606
  O         6.8666698262        6.4214370672        2.4921897635
  O         3.8161718931        6.6038608140        3.7667230230
  O         6.5629001955        8.2965010791        8.8080798544
  O         9.8033818050        0.1418821997        3.8796105510
  O         4.1138402530       11.6579022697        2.2204751055
  O         5.3002184856        8.7352754376        2.7606005457
  O         9.9792453674        5.3778167448        5.3462199719
  O        12.2558541172        8.6434493885        3.9621875050
  O         2.3453136355       10.7589229899        6.8269348486
  O         7.0111664147        0.6466888577       10.5229156226
  O         5.1543468765       10.2298198462       10.3595100838
  O        11.1837936912        5.8845203580       10.2969328862
  O        12.2566564094        8.9709182122        9.0733036974
  H        12.4011699359        2.2540710920       11.2385138854
  H        11.9240693507        1.5621764169        9.9982913759
  H         5.5931331929        3.3841004780        8.9933523422
  H         6.7554343449        3.0681937553        8.0237080904
  H        -0.1619867065        1.5654827056        7.5881737989
  H        -0.4424904585        2.9672798689        8.0794732325
  H        12.1370835244        2.8449349070        1.2344473744
  H        12.8923647344        2.9560245894        2.4980885482
  H        11.5578227321        4.3618053074       11.4710562776
  H        12.8114216972        4.9880725207       12.0553567219