#     Step Nr.          Time[fs]        Kin.[a.u.]          Temp[K]            Pot.[a.u.]        Cons Qty[a.u.]        UsedTime[s]
         0            0.000000         0.272187779       300.000000000     -1101.031006970     -1100.758819192         0.000000000
         1            0.500000         0.273748892       301.720627703     -1101.039289564     -1100.765540673        22.417176008
         2            1.000000         0.286804493       316.110253933     -1101.052553906     -1100.765749413         3.048491955
         3            1.500000         0.307435399       338.849231259     -1101.073673404     -1100.766238006         2.893081188
         4            2.000000         0.327796509       361.290845126     -1101.094614860     -1100.766818351         2.899588823
         5            2.500000         0.338776814       373.393120820     -1101.105932129     -1100.767155315         2.636422157
