#     Step Nr.          Time[fs]        Kin.[a.u.]          Temp[K]            Pot.[a.u.]        Cons Qty[a.u.]        UsedTime[s]
         0            0.000000         0.272187779       300.000000000     -1101.031006971     -1100.758819192         0.000000000
         1            0.500000         0.273748892       301.720627684     -1101.039289564     -1100.765540672        11.801276595
         2            1.000000         0.286804493       316.110253889     -1101.052553906     -1100.765749413         1.447721228
         3            1.500000         0.307435399       338.849231208     -1101.073673404     -1100.766238006         1.453579621
         4            2.000000         0.327796509       361.290845078     -1101.094614860     -1100.766818351         1.456515468
         5            2.500000         0.338776814       373.393120747     -1101.105932129     -1100.767155315         1.264962864
         6            3.000000         0.334790808       368.999824340     -1101.101815178     -1100.767024370         1.102961991
         7            3.500000         0.316947308       349.333070654     -1101.083423185     -1100.766475876         0.967257150
         8            4.000000         0.292267936       322.131953251     -1101.058072647     -1100.765804711         0.955422112
         9            4.500000         0.270116145       297.716685908     -1101.035410333     -1100.765294188         1.093022560
        10            5.000000         0.258319150       284.714270894     -1101.023374987     -1100.765055837         1.085650526
